
 Primary working directories    : /scratch/tylertak
 Secondary working directories  : /scratch/tylertak
 Wavefunction directory         : /home/tylertak/wfu/
 Main file repository           : /scratch/tylertak/

 ARCHNAME  : Linux/x86_64
 FC        : /usr/bin/gfortran
 FCVERSION : 4.4.7
 BLASLIB   : 
 id        : ncsauiuc

 Nodes             nprocs
 bigmem.niac.uw.edu    1

 Using default tuning parameters: mindgm=1; mindgv=20; mindgc=4; mindgr=1; noblas=0; mincuda=1000; minvec=7
 default implementation of scratch files=df  

 TEXT, Cr2/SV HF -&gt; FCI (24e, 30o)
 TEXT, INPUT DECK FROM  WEIFENG HU
 TEXT, J. CHEM. PHYS. 142, 034102 (2015)
 TEXT, TYT ADDED: MCSCF CALCULATION
 
 
 MEMORY,200,M
 
 basis={
 s,CR,0.515280863E+05,0.773721035E+04,0.176037485E+04,0.496877065E+03;
 0.161465206E+03,0.554663523E+02,0.107547330E+03,0.124086719E+02;
 0.504236288E+01,0.854616402E+01,0.139004412E+01,0.560666029E+00;
 0.714837060E-01,0.282506876E-01
 c,1.6, 0.144058231E-02, 0.110362023E-01, 0.546766518E-01;
 0.189650381E+00, 0.382954129E+00, 0.290900507E+00
 c,7.9,-0.109322811E+00, 0.644725995E+00, 0.462627126E+00
 c,10.12,-0.227110133E+00, 0.733015276E+00, 0.442255654E+00
 c,13.13, 0.100000000E+01
 c,14.14, 0.100000000E+01
 p,CR,0.640485361E+03,0.150697112E+03,0.475037553E+02,0.169341202E+02;
 0.624096806E+01,0.308854632E+01,0.117910478E+01,0.433697744E+00
 c,1.5, 0.961267152E-02, 0.708898347E-01, 0.270652590E+00, 0.524373434E+00;
 0.341079947E+00
 c,6.8, 0.339739869E+00, 0.572720629E+00, 0.245827282E+00
 d,CR,0.275594794E+02,0.746870203E+01,0.243459036E+01,0.782447548E+00;
 0.219957743E+00
 c,1.4, 0.306124880E-01, 0.155932709E+00, 0.369844213E+00, 0.470711181E+00
 c,5.5, 0.339416499E+00
 }
 
 angstrom
 geomtyp = xyz
 geometry={
 Cr 0.0 0.0 0.75
 Cr 0.0 0.0 -0.75
 }
 
 {hf;
 wf,48,1,0;
 occ, 8,3,3,1,5,2,2,0;
 ORBPRINT,200
 }
 
 {MCSCF;MAXITER,30;WF,48,1,0;NATORB,,CI,PRINT}
 
 CUBE,no,-1;ORBITAL,4.1,5.1,6.1,7.1,8.1,2.2,3.2,2.3,3.3,1.4,4.5,5.5,6.5,7.5,8.5,2.6,3.6,2.7,3.7,1.8
 
 {fci;
 core,4,1,1,0,4,1,1,0;
 dump
 }

 Variables initialized (661), CPU time= 0.00 sec
 Commands  initialized (458), CPU time= 0.03 sec, 486 directives.
 Default parameters read. Elapsed time= 0.05 sec

 Checking input...
 Passed
1


                                         ***  PROGRAM SYSTEM MOLPRO  ***
                         Copyright, University College Cardiff Consultants Limited, 2008

                                    Version 2010.1 linked Nov  7 2014 20:01:22


 **********************************************************************************************************************************
 LABEL *                                                                                 
 Linux-2.6.32-431.3.1.el6.x86_64/bigmem.niac.uw.edu(x86_64) 64 bit serial version        DATE: 07-Dec-15          TIME: 14:11:21  
 **********************************************************************************************************************************

 SHA1:             3f73351701203426eddf2d03bdd6725cb0910b3b
 **********************************************************************************************************************************

 *** Cr2/SV HF -> FCI (24e, 30o)

 *** INPUT DECK FROM  WEIFENG HU

 *** J. CHEM. PHYS. 142, 034102 (2015)

 *** TYT ADDED: MCSCF CALCULATION

 Variable memory set to  200000000 words,  buffer space   230000 words

 SETTING BASIS          =    USERDEF
 SETTING GEOMTYP        =    XYZ
 ZUNIT=ANG



 Recomputing integrals since basis changed


 Using spherical harmonics


1PROGRAM * SEWARD (Integral evaluation for generally contracted gaussian basis sets)     Author: Roland Lindh, 1990

 Geometry written to block  1 of record 700


 Point group  D2h 



 ATOMIC COORDINATES

 NR  ATOM    CHARGE       X              Y              Z

   1  CR     24.00    0.000000000    0.000000000    1.417294599
   2  CR     24.00    0.000000000    0.000000000   -1.417294599

 Bond lengths in Bohr (Angstrom)

 1-2  2.834589197
     ( 1.500000000)

 NUCLEAR CHARGE:                   48
 NUMBER OF PRIMITIVE AOS:         136
 NUMBER OF SYMMETRY AOS:          126
 NUMBER OF CONTRACTIONS:           42   (  11Ag  +   4B3u +   4B2u +   2B1g +  11B1u +   4B2g +   4B3g +   2Au  )
 NUMBER OF CORE ORBITALS:          18   (   5Ag  +   2B3u +   2B2u +   0B1g +   5B1u +   2B2g +   2B3g +   0Au  )
 NUMBER OF VALENCE ORBITALS:       12   (   3Ag  +   1B3u +   1B2u +   1B1g +   3B1u +   1B2g +   1B3g +   1Au  )


 NUCLEAR REPULSION ENERGY  203.20404826

 EXTRA SYMMETRY OF AOS IN SYMMETRY 1:   1 1 1 1 1 1 1 1 2 1   2
 EXTRA SYMMETRY OF AOS IN SYMMETRY 5:   1 1 1 1 1 1 1 1 2 1   2

 Eigenvalues of metric

         1 0.176E+00 0.376E+00 0.607E+00 0.695E+00 0.734E+00 0.956E+00 0.124E+01 0.141E+01
         2 0.575E+00 0.743E+00 0.130E+01 0.182E+01
         3 0.575E+00 0.743E+00 0.130E+01 0.182E+01
         4 0.734E+00 0.170E+01
         5 0.275E-01 0.272E+00 0.404E+00 0.452E+00 0.561E+00 0.627E+00 0.894E+00 0.112E+01
         6 0.431E+00 0.711E+00 0.101E+01 0.141E+01
         7 0.431E+00 0.711E+00 0.101E+01 0.141E+01
         8 0.452E+00 0.112E+01


 Contracted 2-electron integrals neglected if value below      1.0D-11
 AO integral compression algorithm  1   Integral accuracy      1.0D-11

     0.786 MB (compressed) written to integral file ( 59.2%)


 NUMBER OF SORTED TWO-ELECTRON INTEGRALS:      61153.     BUFFER LENGTH:  32768
 NUMBER OF SEGMENTS:   1  SEGMENT LENGTH:      61153      RECORD LENGTH: 524288

 Memory used in sort:       0.62 MW

 SORT1 READ      150072. AND WROTE       52649. INTEGRALS IN      1 RECORDS. CPU TIME:     0.00 SEC, REAL TIME:     0.01 SEC
 SORT2 READ       52649. AND WROTE       61153. INTEGRALS IN      3 RECORDS. CPU TIME:     0.05 SEC, REAL TIME:     0.04 SEC

 FILE SIZES:   FILE 1:     3.4 MBYTE,  FILE 4:     4.2 MBYTE,   TOTAL:      7.6 MBYTE

 OPERATOR DM      FOR CENTER  0  COORDINATES:    0.000000    0.000000    0.000000


 **********************************************************************************************************************************
 DATASETS  * FILE   NREC   LENGTH (MB)   RECORD NAMES
              1      19        2.91       500      610      700      900      950      970     1000      129      960     1100   
                                          VAR    BASINP    GEOM    SYMINP    ZMAT    AOBASIS   BASIS     P2S    ABASIS      S 
                                         1400     1410     1200     1210     1080     1600     1650     1300     1700   
                                           T        V       H0       H01     AOSYM     SMH    MOLCAS    ERIS     OPER   

 PROGRAMS   *        TOTAL       INT
 CPU TIMES  *         0.62      0.30
 REAL TIME  *         0.67 SEC
 DISK USED  *         8.14 MB      
 **********************************************************************************************************************************

1PROGRAM * RHF-SCF (CLOSED SHELL)       Authors: W. Meyer, H.-J. Werner


 NUMBER OF ELECTRONS:      24+   24-    SPACE SYMMETRY=1    SPIN SYMMETRY: Singlet 
 CONVERGENCE THRESHOLDS:    1.00E-05 (Density)    1.00E-07 (Energy)
 MAX. NUMBER OF ITERATIONS:       60
 INTERPOLATION TYPE:            DIIS
 INTERPOLATION STEPS:              2 (START)      1 (STEP)
 LEVEL SHIFTS:                  0.00 (CLOSED)  0.00 (OPEN) 

 Number of closed-shell orbitals:   24 (   8   3   3   1   5   2   2   0 )


 Orbital guess generated from atomic densities. Full valence occupancy:    8   3   3   1   8   3   3   1


 Molecular orbital dump at record        2100.2

 ITERATION    DDIFF          GRAD             ENERGY        2-EL.EN.            DIPOLE MOMENTS         DIIS
    1      0.000D+00      0.000D+00     -2085.45907637   1997.775566    0.00000    0.00000    0.00000    0
    2      0.000D+00      0.449D-01     -2085.53473537   1958.782432    0.00000    0.00000    0.00000    1
    3      0.101D+00      0.298D-01     -2085.57264070   1972.760279    0.00000    0.00000    0.00000    2
    4      0.283D-01      0.137D-02     -2085.57295306   1972.644327    0.00000    0.00000    0.00000    3
    5      0.641D-02      0.294D-03     -2085.57297065   1972.612246    0.00000    0.00000    0.00000    4
    6      0.184D-02      0.277D-04     -2085.57297078   1972.601466    0.00000    0.00000    0.00000    5
    7      0.162D-03      0.603D-05     -2085.57297079   1972.600838    0.00000    0.00000    0.00000    5
    8      0.232D-04      0.126D-05     -2085.57297079   1972.600712    0.00000    0.00000    0.00000    5
    9      0.669D-05      0.148D-06     -2085.57297079   1972.600692    0.00000    0.00000    0.00000    0

 Final occupancy:   8   3   3   1   5   2   2   0

 !RHF STATE 1.1 Energy              -2085.572970787198
 Nuclear energy                       203.20404826
 One-electron energy                -3275.07736525
 Two-electron energy                  986.30034620
 Virial quotient                       -1.00054916
 !RHF STATE 1.1 Dipole moment           0.00000000     0.00000000     0.00000000
 Dipole moment /Debye                   0.00000000     0.00000000     0.00000000

 ELECTRON ORBITALS
 =================


   Orb  Occ    Energy  Couls-En    Coefficients

                                   1 1s      1 1s      1 1s      1 1s      1 1s      1 2pz     1 2pz     1 3d0     1 3d2+    1 3d0  
                                   1 3d2+ 

   1.1   2  -220.6248 -516.9225  0.995579  0.014326 -0.003315  0.001252 -0.000624 -0.000007 -0.000046 -0.000046 -0.000000  0.000707
                                 0.000000

   2.1   2   -26.4643 -105.1760 -0.331342  1.044515  0.013999 -0.002369  0.001158 -0.009590 -0.000258  0.000162 -0.000000 -0.000973
                                 0.000000

   3.1   2   -22.4020 -100.4606 -0.003132  0.010001  0.000895  0.000455 -0.000460  0.994625  0.014884 -0.000554  0.000000 -0.000355
                                -0.000000

   4.1   2    -3.6069  -39.1123  0.114993 -0.432419  1.028708  0.001000  0.001034  0.058018 -0.151863  0.030514 -0.000000 -0.000355
                                 0.000000

   5.1   2    -2.4724  -35.7997  0.026850 -0.097485  0.266670 -0.003188  0.000937 -0.356137  0.974825 -0.080854 -0.000000 -0.006220
                                 0.000000

   6.1   2    -0.4209  -28.3278 -0.004264  0.011345 -0.065857 -0.250278  0.079056 -0.058845  0.193110  0.819543 -0.000000  0.264878
                                 0.000000

   7.1   2    -0.3019  -25.8411 -0.000000  0.000000 -0.000000  0.000000  0.000000 -0.000000  0.000000  0.000000  0.741507 -0.000000
                                 0.374150

   8.1   2    -0.2081  -14.7537 -0.034881  0.096838 -0.501981  0.501802  0.326638 -0.018607  0.065130  0.215617 -0.000000  0.055079
                                -0.000000

   9.1   0     0.1198  -10.1721  0.030897 -0.081539  0.463809 -1.656853  1.509291  0.025472 -0.086503 -0.131674 -0.000000  0.034847
                                -0.000000

  10.1   0     0.7475  -19.7396  0.000000 -0.000000  0.000000 -0.000000  0.000000 -0.000000 -0.000000  0.000000 -0.765295 -0.000000
                                 0.822686

  11.1   0     0.7483  -15.9258 -0.033812  0.057665 -0.638729  0.220281 -0.074076  0.007405  0.025343 -0.529259 -0.000000  1.294785
                                 0.000000

                                   1 2px     1 2px     1 3d1+    1 3d1+ 

   1.2   2   -22.3991 -100.4110  0.994479  0.015726 -0.001138  0.001530

   2.2   2    -2.2989  -35.3419 -0.375135  1.041733 -0.052448 -0.004020

   3.2   2    -0.4360  -27.9981 -0.058382  0.185531  0.778080  0.294711

   4.2   0     0.8405  -19.2171 -0.059954  0.217543 -0.711787  0.945976

                                   1 2py     1 2py     1 3d1-    1 3d1- 

   1.3   2   -22.3991 -100.4110  0.994479  0.015726 -0.001138  0.001530

   2.3   2    -2.2989  -35.3419 -0.375135  1.041733 -0.052448 -0.004020

   3.3   2    -0.4360  -27.9981 -0.058382  0.185531  0.778080  0.294711

   4.3   0     0.8405  -19.2171 -0.059954  0.217543 -0.711787  0.945976

                                   1 3d2-    1 3d2- 

   1.4   2    -0.3019  -25.8411  0.741507  0.374150

   2.4   0     0.7475  -19.7396 -0.765295  0.822686

                                   1 1s      1 1s      1 1s      1 1s      1 1s      1 2pz     1 2pz     1 3d0     1 3d2+    1 3d0  
                                   1 3d2+ 

   1.5   2  -220.6247 -516.9226  0.995588  0.014328 -0.003065  0.001365 -0.001058 -0.000097  0.000211 -0.000052 -0.000000 -0.000433
                                 0.000000

   2.5   2   -26.4643 -105.1752 -0.331330  1.044424  0.013945 -0.002479  0.001853 -0.009308 -0.001127  0.000395  0.000000  0.000647
                                 0.000000

   3.5   2   -22.4016 -100.4435 -0.003269  0.010435 -0.001027 -0.005592  0.004201  0.993736  0.018075 -0.001829 -0.000000 -0.000688
                                -0.000000

   4.5   2    -3.4256  -38.6271  0.122044 -0.457006  1.109867  0.001056  0.001393 -0.002134  0.000061 -0.010814 -0.000000  0.004798
                                -0.000000

   5.5   2    -2.0673  -36.1662 -0.009432  0.032017 -0.107687 -0.005348  0.012172 -0.405535  1.148173  0.036690  0.000000  0.000509
                                 0.000000

   6.5   0     0.0115   -9.2034 -0.012547  0.035296 -0.178095  0.413974  2.601494  0.038201 -0.124803  0.002917  0.000000  0.018539
                                 0.000000

   7.5   0     0.1252  -26.4272  0.000000 -0.000000  0.000000 -0.000000 -0.000000  0.000000 -0.000000  0.000000  0.816441 -0.000000
                                 0.479799

   8.5   0     0.1644  -10.7298  0.027071 -0.071099  0.406896 -3.525076  4.351680 -0.054878  0.185890  0.093228  0.000000 -0.036187
                                -0.000000

   9.5   0     0.2428  -25.3398  0.019990 -0.052111  0.302983  0.661926 -0.769075  0.094751 -0.321160  0.780781  0.000000  0.542455
                                -0.000000

  10.5   0     0.8879  -17.5781 -0.000000  0.000000 -0.000000 -0.000000  0.000000 -0.000000  0.000000  0.000000 -0.702861 -0.000000
                                 1.309583

  11.5   0     0.9036  -20.7132  0.017432 -0.021262  0.362244  0.384751 -0.402446  0.008621 -0.060005 -0.856894 -0.000000  1.021579
                                 0.000000

                                   1 2px     1 2px     1 3d1+    1 3d1+ 

   1.6   2   -22.3987 -100.4044  0.994175  0.016749 -0.000668 -0.002680

   2.6   2    -2.1930  -35.4484 -0.388756  1.087146  0.003573 -0.010655

   3.6   0     0.1956  -24.3546  0.076333 -0.257355  0.751744  0.704809

   4.6   0     0.6452  -20.6487  0.081018 -0.290526 -0.785533  1.126655

                                   1 2py     1 2py     1 3d1-    1 3d1- 

   1.7   2   -22.3987 -100.4044  0.994175  0.016749 -0.000668 -0.002680

   2.7   2    -2.1930  -35.4484 -0.388756  1.087146  0.003573 -0.010655

   3.7   0     0.1956  -24.3546  0.076333 -0.257355  0.751744  0.704809

   4.7   0     0.6452  -20.6487  0.081018 -0.290526 -0.785533  1.126655

                                   1 3d2-    1 3d2- 

   1.8   0     0.1252  -26.4272  0.816441  0.479799

   2.8   0     0.8879  -17.5781 -0.702861  1.309583


 **********************************************************************************************************************************
 DATASETS  * FILE   NREC   LENGTH (MB)   RECORD NAMES
              1      19        2.91       500      610      700      900      950      970     1000      129      960     1100   
                                          VAR    BASINP    GEOM    SYMINP    ZMAT    AOBASIS   BASIS     P2S    ABASIS      S 
                                         1400     1410     1200     1210     1080     1600     1650     1300     1700   
                                           T        V       H0       H01     AOSYM     SMH    MOLCAS    ERIS     OPER   

              2       3        0.29       700     1000     2100   
                                         GEOM     BASIS     RHF  

 PROGRAMS   *        TOTAL        HF       INT
 CPU TIMES  *         0.64      0.02      0.30
 REAL TIME  *         0.70 SEC
 DISK USED  *         8.14 MB      
 **********************************************************************************************************************************

1PROGRAM * MULTI (Direct Multiconfiguration SCF)       Authors: P.J. Knowles, H.-J. Werner (1984)     S.T. Elbert (1988)


 Number of closed-shell orbitals: 18 (  5  2  2  0  5  2  2  0 )
 Number of active  orbitals:      12 (  3  1  1  1  3  1  1  1 )
 Number of external orbitals:     12 (  3  1  1  1  3  1  1  1 )

 State symmetry 1

 Number of electrons:    12    Spin symmetry=Singlet   Space symmetry=1
 Number of states:        1
 Number of CSFs:      28784   (107216 determinants, 853776 intermediate states)

 Iteration controls:
             1  2  3  4  5  6  7  8  9 10 11 12 13 14 15 16 17 18 19 20 21 22 23 24 25 26 27 28 29 30
 DIAGCI      T  T  T  T  T  T  T  T  T  T  T  T  T  T  T  T  T  T  T  T  T  T  T  T  T  T  T  T  T  T
 WERNER      T  T  T  T  T  T  T  T  T  T  T  T  T  T  T  T  T  T  T  T  T  T  T  T  T  T  T  T  T  T
 INTERNAL    F  T  T  T  T  T  T  T  T  T  T  T  T  T  T  T  T  T  T  T  T  T  T  T  T  T  T  T  T  T

 Molecular orbitals read from record     2100.2  Type=RHF/CANONICAL (state 1.1)

 EXTRA SYMMETRY OF MOS IN SYMMETRY 1:   1 1 1 1 1 1 2 1 1 2   1
 EXTRA SYMMETRY OF MOS IN SYMMETRY 5:   1 1 1 1 1 1 2 1 1 2   1

 Wavefunction dump at record             2140.2

 Convergence thresholds  0.10E-01 (gradient)  0.10E-05 (energy)  0.10E-02 (step length)

 Number of orbital rotations:     100     (  38 Core/Active   38 Core/Virtual   0 Active/Active   24 Active/Virtual)
 Total number of variables:    107316


 ITER. MIC  NCI  NEG     ENERGY(VAR)     ENERGY(PROJ)   ENERGY CHANGE     GRAD(0)  GRAD(ORB)   GRAD(CI)     STEP       TIME

   1   60   37    0   -2085.97581316   -2086.24924349   -0.27343033    0.18871437 0.00000087 0.02655483  0.12D+01      8.22
   2   57   54    0   -2086.22007817   -2086.22456990   -0.00449173    0.07759248 0.00000008 0.06309556  0.14D+00     18.90
   3   37   47    0   -2086.22554267   -2086.22557334   -0.00003068    0.00254515 0.00000000 0.00352239  0.30D-01     28.49
   4   32   33    0   -2086.22557345   -2086.22557347   -0.00000002    0.00003142 0.00000000 0.00026665  0.85D-03     35.25

 ** WVFN ****  CONVERGENCE REACHED, FINAL GRADIENT:  0.37D-05


 First order charge density matrix for state 1.1 saved on record  2140.2 (density set 1)

 Results for state 1.1
 =====================

 !MCSCF STATE 1.1 Energy            -2086.225573470553
 Nuclear energy                       203.20404826
 Kinetic energy                      2087.18153461
 One electron energy                -3279.89143108
 Two electron energy                  990.46180935
 Virial ratio                           1.99954198

 !MCSCF STATE 1.1 Dipole moment         0.00000000     0.00000000     0.00000000
 Dipole moment /Debye                   0.00000000     0.00000000     0.00000000


 NATURAL ORBITALS                                        
 ================                                        

   Orb     Occ        Energy       Coefficients

                                   1 1s      1 1s      1 1s      1 1s      1 1s      1 2pz     1 2pz     1 3d0     1 3d2+    1 3d0  
                                   1 3d2+ 

   1.1  2.00000  -220.465829     0.995579  0.014327 -0.003314  0.001253 -0.000624  0.000001 -0.000047 -0.000049  0.000000  0.000706
                                 0.000000

   2.1  2.00000   -26.311665    -0.331316  1.044408  0.014238 -0.002401  0.001407 -0.007724 -0.000122  0.000519  0.000000 -0.000936
                                 0.000000

   3.1  2.00000   -22.249045    -0.002502  0.007999  0.000944  0.000718 -0.000577  0.994544  0.015125 -0.001081  0.000000 -0.000655
                                 0.000000

   4.1  2.00000    -3.513273     0.114443 -0.431080  1.018566  0.019564  0.002109  0.056952 -0.148904  0.019602  0.000000 -0.001322
                                 0.000000

   5.1  2.00000    -2.383562     0.025237 -0.092494  0.245757  0.000217  0.012763 -0.359104  0.983604 -0.043783  0.000000  0.005756
                                 0.000000

   6.1  1.93309    -0.223859    -0.033009  0.094798 -0.457741  0.514024  0.314387  0.007275 -0.019949 -0.109325 -0.000000 -0.043243
                                -0.000000

   7.1  1.86079    -0.299132    -0.016146  0.044757 -0.237047 -0.074485  0.219353 -0.043766  0.155905  0.846536 -0.000000  0.255317
                                -0.000000

   8.1  1.77585    -0.217853    -0.000000  0.000000 -0.000000  0.000000  0.000000 -0.000000  0.000000  0.000000  0.771481  0.000000
                                 0.340994

                                   1 2px     1 2px     1 3d1+    1 3d1+ 

   1.2  2.00000   -22.245566     0.994369  0.016015 -0.001592  0.001323

   2.2  2.00000    -2.214676    -0.375444  1.041394 -0.048552 -0.006481

   3.2  1.87339    -0.352793    -0.056030  0.179800  0.789641  0.279322

                                   1 2py     1 2py     1 3d1-    1 3d1- 

   1.3  2.00000   -22.245566     0.994369  0.016015 -0.001592  0.001323

   2.3  2.00000    -2.214676    -0.375444  1.041394 -0.048552 -0.006481

   3.3  1.87339    -0.352793    -0.056030  0.179800  0.789641  0.279322

                                   1 3d2-    1 3d2- 

   1.4  1.77585    -0.217853     0.771481  0.340994

                                   1 1s      1 1s      1 1s      1 1s      1 1s      1 2pz     1 2pz     1 3d0     1 3d2+    1 3d0  
                                   1 3d2+ 

   1.5  2.00000  -220.465807     0.995588  0.014328 -0.003065  0.001366 -0.001058 -0.000090  0.000210 -0.000052  0.000000 -0.000433
                                 0.000000

   2.5  2.00000   -26.311683    -0.331289  1.044268  0.014392 -0.002669  0.002003 -0.007430 -0.001081  0.000410  0.000000  0.000679
                                 0.000000

   3.5  2.00000   -22.248857    -0.002656  0.008479 -0.001143 -0.005820  0.004386  0.993573  0.018591 -0.001757  0.000000 -0.000801
                                 0.000000

   4.5  2.00000    -3.335085     0.121962 -0.456876  1.106745  0.012234 -0.005184 -0.004073  0.005543 -0.007658  0.000000  0.002388
                                 0.000000

   5.5  2.00000    -1.982066    -0.010265  0.035083 -0.115751  0.005667  0.003008 -0.406190  1.148882  0.027956  0.000000  0.002076
                                 0.000000

   6.5  0.22689     0.179363     0.000000  0.000000  0.000000  0.000000  0.000000  0.000000  0.000000  0.000000  0.933728  0.000000
                                 0.225793

   7.5  0.13134     0.393562     0.014218 -0.045866  0.179933  0.090784 -0.020561  0.075842 -0.247118  1.050795  0.000000  0.111647
                                 0.000000

   8.5  0.07033     0.066959    -0.027217  0.071676 -0.406648  2.235664 -0.174371  0.062559 -0.204432  0.035052  0.000000 -0.057316
                                 0.000000

                                   1 2px     1 2px     1 3d1+    1 3d1+ 

   1.6  2.00000   -22.245326     0.993993  0.017265 -0.000593 -0.002835

   2.6  2.00000    -2.111098    -0.388856  1.085898 -0.004370 -0.005022

   3.6  0.12609     0.340396     0.029658 -0.093676  1.023709  0.126391

                                   1 2py     1 2py     1 3d1-    1 3d1- 

   1.7  2.00000   -22.245326     0.993993  0.017265 -0.000593 -0.002835

   2.7  2.00000    -2.111098    -0.388856  1.085898 -0.004370 -0.005022

   3.7  0.12609     0.340396     0.029658 -0.093676  1.023709  0.126391

                                   1 3d2-    1 3d2- 

   1.8  0.22689     0.179363     0.933728  0.225793


 EXTRA SYMMETRY OF MOS IN SYMMETRY 1:   1 1 1 1 1 1 1 2 1 1   2
 EXTRA SYMMETRY OF MOS IN SYMMETRY 5:   1 1 1 1 1 2 1 1 1 1   2

 Natural orbital dump at molpro section                    2140.2    (Orbital set 2)


 CI vector
 =========

 222 2 2 2 000 0 0 0      0.8077700
 222 2 2 0 000 0 0 2     -0.1794060
 220 2 2 2 200 0 0 0     -0.1794059
 022 2 2 2 002 0 0 0     -0.1186919
 22b 2 2 a a00 0 0 b     -0.0972226
 22a 2 2 b b00 0 0 a     -0.0972226
 202 2 2 2 020 0 0 0     -0.0959107
 222 2 0 2 000 0 2 0     -0.0951095
 222 0 2 2 000 2 0 0     -0.0951095
 220 2 2 0 200 0 0 2      0.0726748
 22b 2 2 a b00 0 0 a      0.0668161
 22a 2 2 b a00 0 0 b      0.0668161
 2a2 2 b 2 0b0 0 a 0     -0.0626424
 2b2 2 a 2 0a0 0 b 0     -0.0626424
 2b2 a 2 2 0a0 b 0 0     -0.0626424
 2a2 b 2 2 0b0 a 0 0     -0.0626424
 222 a 2 b 000 b 0 a     -0.0599557
 222 b 2 a 000 a 0 b     -0.0599557
 222 2 a b 000 0 b a     -0.0599557
 222 2 b a 000 0 a b     -0.0599557
 22b 2 a 2 a00 0 b 0     -0.0599557
 22b a 2 2 a00 b 0 0     -0.0599557
 22a 2 b 2 b00 0 a 0     -0.0599557
 22a b 2 2 b00 a 0 0     -0.0599557
 2ab 2 2 2 ab0 0 0 0      0.0587820
 2ba 2 2 2 ba0 0 0 0      0.0587820
 2a2 2 2 b 0b0 0 0 a     -0.0587820
 2b2 2 2 a 0a0 0 0 b     -0.0587820
 222 a b 2 000 b a 0     -0.0551631
 222 b a 2 000 a b 0     -0.0551631

 TOTAL ENERGIES                     -2086.22557347



 **********************************************************************************************************************************
 DATASETS  * FILE   NREC   LENGTH (MB)   RECORD NAMES
              1      20        4.28       500      610      700      900      950      970     1000      129      960     1100   
                                          VAR    BASINP    GEOM    SYMINP    ZMAT    AOBASIS   BASIS     P2S    ABASIS      S 
                                         1400     1410     1200     1210     1080     1600     1650     1300     1700     1380   
                                           T        V       H0       H01     AOSYM     SMH    MOLCAS    ERIS     OPER     JKOP   

              2       4        0.34       700     1000     2100     2140   
                                         GEOM     BASIS     RHF     MCSCF   

 PROGRAMS   *        TOTAL     MCSCF        HF       INT
 CPU TIMES  *        45.14     44.47      0.02      0.30
 REAL TIME  *        46.44 SEC
 DISK USED  *        85.66 MB      
 **********************************************************************************************************************************

1PROGRAM * CUBE (Write data to grid)     Author: P.J. Knowles, 1997
 Formatted data will be written to files with base name no
 Grid dimensions:              77             77             86
 Grid centroid:         0.0000000      0.0000000      0.0000000
 Axes:                  1.0000000      0.0000000      0.0000000
                       -0.0000000      1.0000000      0.0000000
                        0.0000000     -0.0000000      1.0000000
 Grid spacing:          0.3129141      0.3129141      0.3129141
 Molecular orbitals read from record     2140.2  Type=MCSCF/NATURAL (state 1.1)
 Orbital energies read from record       2140.2  Type=MCSCF/NATURAL (state 1.1)
 Occupation numbers read from record     2140.2  Type=MCSCF/NATURAL (state 1.1)
 Orbitals to be computed:   4.1  5.1  6.1  7.1  8.1  2.2  3.2  2.3  3.3  1.4
                            4.5  5.5  6.5  7.5  8.5  2.6  3.6  2.7  3.7  1.8
 Orbital  4.1 to be written to no_orbital_4.1.cube
 Orbital  5.1 to be written to no_orbital_5.1.cube
 Orbital  6.1 to be written to no_orbital_6.1.cube
 Orbital  7.1 to be written to no_orbital_7.1.cube
 Orbital  8.1 to be written to no_orbital_8.1.cube
 Orbital  2.2 to be written to no_orbital_2.2.cube
 Orbital  3.2 to be written to no_orbital_3.2.cube
 Orbital  2.3 to be written to no_orbital_2.3.cube
 Orbital  3.3 to be written to no_orbital_3.3.cube
 Orbital  1.4 to be written to no_orbital_1.4.cube
 Orbital  4.5 to be written to no_orbital_4.5.cube
 Orbital  5.5 to be written to no_orbital_5.5.cube
 Orbital  6.5 to be written to no_orbital_6.5.cube
 Orbital  7.5 to be written to no_orbital_7.5.cube
 Orbital  8.5 to be written to no_orbital_8.5.cube
 Orbital  2.6 to be written to no_orbital_2.6.cube
 Orbital  3.6 to be written to no_orbital_3.6.cube
 Orbital  2.7 to be written to no_orbital_2.7.cube
 Orbital  3.7 to be written to no_orbital_3.7.cube
 Orbital  1.8 to be written to no_orbital_1.8.cube


 **********************************************************************************************************************************
 DATASETS  * FILE   NREC   LENGTH (MB)   RECORD NAMES
              1      20        4.28       500      610      700      900      950      970     1000      129      960     1100   
                                          VAR    BASINP    GEOM    SYMINP    ZMAT    AOBASIS   BASIS     P2S    ABASIS      S 
                                         1400     1410     1200     1210     1080     1600     1650     1300     1700     1380   
                                           T        V       H0       H01     AOSYM     SMH    MOLCAS    ERIS     OPER     JKOP   

              2       4        0.34       700     1000     2100     2140   
                                         GEOM     BASIS     RHF     MCSCF   

 PROGRAMS   *        TOTAL      CUBE     MCSCF        HF       INT
 CPU TIMES  *        52.27      7.10     44.47      0.02      0.30
 REAL TIME  *        53.75 SEC
 DISK USED  *        85.66 MB      
 **********************************************************************************************************************************

1PROGRAM * FCI (Full CI)     Author: P.J. Knowles, 1984

 ***  Initialisation ***

 Molecular orbitals read from record     2140.2  Type=MCSCF/NATURAL (state 1.1)

 Frozen orbitals:             12 (  4  1  1  0  4  1  1  0)
 Active orbitals:             30 (  7  3  3  2  7  3  3  2)
 Active electrons:            24
 Spin quantum number:          0.0
 Orbital pairs:                    86      54      54      46      71      54      54      46
 Strings:                    1081613310812122108121221080873810811128108121221081212210808738
                             1081613310812122108121221080873810811128108121221081212210808738
 Determinants:               ****************************************************************

 Load integrals               81.0 sec
 Transform integrals          81.1 sec
 Storage for integrals:          30163
 Remaining memory:           199957715

 Core energy:           -1915.85425192
 Run Hamiltonian processor DUMP    
 Symmetry:                   1
 Trial vector:                  0.00
 Result vector:                 0.00
 Maximum iterations:           90
 Convergence threshold:         0.0000100
 RHS vector:                    0.00
 Hamiltonian shift:             0.0000000
 Output threshold:              0.0500000
 Options:                        0
 Number of roots:             1
 insufficient memory available - require       935134784582897  have             199957715
 the request was for real words

 ERROR EXIT
 CURRENT STACK:      MAIN


 **********************************************************************************************************************************
 DATASETS  * FILE   NREC   LENGTH (MB)   RECORD NAMES
              1      20        4.28       500      610      700      900      950      970     1000      129      960     1100   
                                          VAR    BASINP    GEOM    SYMINP    ZMAT    AOBASIS   BASIS     P2S    ABASIS      S 
                                         1400     1410     1200     1210     1080     1600     1650     1300     1700     1380   
                                           T        V       H0       H01     AOSYM     SMH    MOLCAS    ERIS     OPER     JKOP   

              2       4        0.34       700     1000     2100     2140   
                                         GEOM     BASIS     RHF     MCSCF   

 PROGRAMS   *        TOTAL    FEHLER      CUBE     MCSCF        HF       INT
 CPU TIMES  *        79.78     27.48      7.10     44.47      0.02      0.30
 REAL TIME  *        81.28 SEC
 DISK USED  *        85.66 MB      
 **********************************************************************************************************************************
