 &FCI NORB=           16 ,NELEC=           4 ,MS2=            0 ,
  ORBSYM=
                   0,                   0,                   0,                   0,                   0,                   0,                   0,                   0,                   0,                   0,                   0,                   0,                   0,                   0,                   0,                   0,
  ISYM=           1
 NPROP =           1           1           1
 PROPBITLEN=          15
 &END
    1.65256356635       1   1   1   1
   0.168544531208       1   1   1   2
   0.138314918163       1   1   1   3
   0.266013673929       1   1   1  16
   0.168544531209       1   2   1   1
   0.286927179364E-01   1   2   1   2
   0.244191986586E-01   1   2   1   3
   0.486336926519E-01   1   2   1  16
   0.138314918164       1   3   1   1
   0.244191986586E-01   1   3   1   2
   0.214253663173E-01   1   3   1   3
   0.432106342042E-01   1   3   1  16
   0.295298308051E-01   1   4   1   4
   0.201951284604E-01   1   4   1  11
  -0.201154301640E-04   1   4   1  12
   0.322366942154E-04   1   4   1  13
   0.295298291986E-01   1   5   1   5
   0.319488807142E-04   1   5   1  11
   0.182638286648E-01   1   5   1  12
  -0.861836263863E-02   1   5   1  13
   0.295298295885E-01   1   6   1   6
   0.205696443361E-04   1   6   1  11
  -0.861839841429E-02   1   6   1  12
  -0.182638280113E-01   1   6   1  13
   0.253297045315E-02   1   7   1   7
   0.253297037386E-02   1   8   1   8
   0.253297046206E-02   1   9   1   9
   0.577852221774E-03   1  10   1  10
   0.201951284604E-01   1  11   1   4
   0.319488807142E-04   1  11   1   5
   0.205696443360E-04   1  11   1   6
   0.146190914583E-01   1  11   1  11
  -0.201154301640E-04   1  12   1   4
   0.182638286648E-01   1  12   1   5
  -0.861839841428E-02   1  12   1   6
   0.146190914020E-01   1  12   1  12
   0.322366942153E-04   1  13   1   4
  -0.861836263862E-02   1  13   1   5
  -0.182638280113E-01   1  13   1   6
   0.146190910208E-01   1  13   1  13
   0.354837451481E-02   1  14   1  14
   0.354837452251E-02   1  15   1  15
   0.266013673932       1  16   1   1
   0.486336926516E-01   1  16   1   2
   0.432106342039E-01   1  16   1   3
   0.899545238317E-01   1  16   1  16
   0.574145159411       1   1   2   2
   0.695505975385E-01   1   1   2   3
   0.105639293458       1   1   2  16
  -0.177875002037E-02   1   2   2   2
   0.851572510336E-02   1   2   2   3
   0.143699541442E-01   1   2   2  16
   0.210152312904E-02   1   3   2   2
   0.201059591273E-02   1   3   2   3
   0.111830322669E-01   1   3   2  16
  -0.159933786494E-01   1   4   2   4
  -0.133825658125E-02   1   4   2  11
   0.133289764408E-05   1   4   2  12
  -0.213617388025E-05   1   4   2  13
  -0.159933785376E-01   1   5   2   5
  -0.211709178393E-05   1   5   2  11
  -0.121027671142E-02   1   5   2  12
   0.571107168750E-03   1   5   2  13
  -0.159933786048E-01   1   6   2   6
  -0.136307007413E-05   1   6   2  11
   0.571109514020E-03   1   6   2  12
   0.121027662619E-02   1   6   2  13
  -0.769905747183E-02   1   7   2   7
  -0.769905739224E-02   1   8   2   8
  -0.769905748250E-02   1   9   2   9
  -0.432018270862E-02   1  10   2  10
  -0.711765810383E-02   1  11   2   4
  -0.112602084766E-04   1  11   2   5
  -0.724965694050E-05   1  11   2   6
  -0.524750716598E-02   1  11   2  11
   0.708950806165E-05   1  12   2   4
  -0.643698279332E-02   1  12   2   5
   0.303750559096E-02   1  12   2   6
  -0.524750733530E-02   1  12   2  12
  -0.113616348412E-04   1  13   2   4
   0.303749299192E-02   1  13   2   5
   0.643698251390E-02   1  13   2   6
  -0.524750729861E-02   1  13   2  13
  -0.754859532311E-02   1  14   2  14
  -0.754859532820E-02   1  15   2  15
   0.385828650026E-02   1  16   2   2
   0.954573107437E-02   1  16   2   3
   0.182848814793E-01   1  16   2  16
   0.559003965131       1   1   3   3
   0.103636705732       1   1   3  16
  -0.333865703370E-02   1   2   3   3
   0.140704562025E-01   1   2   3  16
   0.281113771644E-02   1   3   3   3
   0.112180385779E-01   1   3   3  16
  -0.103575889995E-01   1   4   3   4
  -0.999988810030E-02   1   4   3  11
   0.996039182141E-05   1   4   3  12
  -0.159624367796E-04   1   4   3  13
  -0.103575882089E-01   1   5   3   5
  -0.158198953161E-04   1   5   3  11
  -0.904357886520E-02   1   5   3  12
   0.426749747710E-02   1   5   3  13
  -0.103575883544E-01   1   6   3   6
  -0.101852833194E-04   1   6   3  11
   0.426751516933E-02   1   6   3  12
   0.904357860382E-02   1   6   3  13
  -0.554854293217E-02   1   7   3   7
  -0.554854295986E-02   1   8   3   8
  -0.554854297703E-02   1   9   3   9
  -0.431115272251E-02   1  10   3  10
  -0.763471552461E-02   1  11   3   4
  -0.120782095430E-04   1  11   3   5
  -0.777628254746E-05   1  11   3   6
  -0.591555456798E-02   1  11   3  11
   0.760456165367E-05   1  12   3   4
  -0.690459253374E-02   1  12   3   5
   0.325816291203E-02   1  12   3   6
  -0.591555444911E-02   1  12   3  12
  -0.121870098661E-04   1  13   3   4
   0.325814938818E-02   1  13   3   5
   0.690459229090E-02   1  13   3   6
  -0.591555433983E-02   1  13   3  13
  -0.383417907964E-02   1  14   3  14
  -0.383417908438E-02   1  15   3  15
   0.280103270407E-02   1  16   3   3
   0.175973466622E-01   1  16   3  16
   0.683647315474       1   1   4   4
   0.103137816102       1   1   4  11
  -0.102730601905E-03   1   1   4  12
   0.164634864695E-03   1   1   4  13
   0.844360054457E-02   1   2   4   4
   0.116008552940E-01   1   2   4  11
  -0.115550645051E-04   1   2   4  12
   0.185179928512E-04   1   2   4  13
   0.543453593832E-02   1   3   4   4
   0.552322015228E-02   1   3   4  11
  -0.550142844550E-05   1   3   4  12
   0.881650079357E-05   1   3   4  13
  -0.424758339713E-03   1   4   4   7
  -0.618551158589E-02   1   4   4   8
  -0.124965372490E-01   1   4   4   9
   0.363741967306E-05   1   4   4  14
   0.169795305306E-04   1   4   4  15
  -0.236983010253E-01   1   4   4  16
   0.673565259271E-02   1   5   4   7
  -0.171616022708E-02   1   5   4   8
   0.624986418795E-03   1   5   4   9
   0.175346935636E-01   1   5   4  14
   0.100905288677E-01   1   5   4  15
   0.181572624502E-02   1   6   4   7
   0.600532680246E-02   1   6   4   8
  -0.303918868324E-02   1   6   4   9
   0.100916707396E-01   1   6   4  14
  -0.175469155260E-01   1   6   4  15
  -0.166118755734E-03   1   7   4   4
   0.263424510108E-02   1   7   4   5
   0.710112050150E-03   1   7   4   6
   0.487010166222E-04   1   7   4  10
  -0.245907635171E-03   1   7   4  11
   0.317160782813E-02   1   7   4  12
  -0.269451409327E-02   1   7   4  13
  -0.241909051279E-02   1   8   4   4
  -0.671172793617E-03   1   8   4   5
   0.234862213513E-02   1   8   4   6
   0.699182138502E-03   1   8   4  10
  -0.368760722012E-02   1   8   4  11
  -0.245081982791E-02   1   8   4  12
  -0.280861603092E-02   1   8   4  13
  -0.488726861930E-02   1   9   4   4
   0.244425771997E-03   1   9   4   5
  -0.118859574075E-02   1   9   4   6
   0.141527523928E-02   1   9   4  10
  -0.745539841489E-02   1   9   4  11
   0.111822705413E-02   1   9   4  12
   0.146850385015E-02   1   9   4  13
   0.265260798923E-04   1  10   4   7
   0.380823247818E-03   1  10   4   8
   0.770857389735E-03   1  10   4   9
  -0.351067490279E-03   1  11   4   7
  -0.526457671594E-02   1  11   4   8
  -0.106436268148E-01   1  11   4   9
   0.202410459373E-04   1  11   4  14
   0.732279732661E-05   1  11   4  15
  -0.146756869201E-01   1  11   4  16
   0.452791509685E-02   1  12   4   7
  -0.349888915599E-02   1  12   4   8
   0.159642595420E-02   1  12   4   9
   0.561274318545E-02   1  12   4  14
   0.807271289005E-02   1  12   4  15
   0.146177581740E-04   1  12   4  16
  -0.384679686880E-02   1  13   4   7
  -0.400969342940E-02   1  13   4   8
   0.209649530377E-02   1  13   4   9
  -0.807067036894E-02   1  13   4  14
   0.561837392504E-02   1  13   4  15
  -0.234263993602E-04   1  13   4  16
   0.167236465114E-05   1  14   4   4
   0.806300638157E-02   1  14   4   5
   0.464046920701E-02   1  14   4   6
   0.127119322380E-05   1  14   4  11
   0.352539912444E-03   1  14   4  12
  -0.506923777772E-03   1  14   4  13
   0.780792122411E-05   1  15   4   4
   0.463994415381E-02   1  15   4   5
  -0.806862640814E-02   1  15   4   6
   0.460014925957E-06   1  15   4  11
   0.507052100099E-03   1  15   4  12
   0.352893514719E-03   1  15   4  13
   0.545317536189E-02   1  16   4   4
   0.873604519357E-02   1  16   4  11
  -0.870155827726E-05   1  16   4  12
   0.139450064966E-04   1  16   4  13
   0.683647309326       1   1   5   5
   0.163164968740E-03   1   1   5  11
   0.932745455745E-01   1   1   5  12
  -0.440145313257E-01   1   1   5  13
   0.844359974641E-02   1   2   5   5
   0.183526612292E-04   1   2   5  11
   0.104914428011E-01   1   2   5  12
  -0.495071763709E-02   1   2   5  13
   0.543453563302E-02   1   3   5   5
   0.873778542504E-05   1   3   5  11
   0.499502398047E-02   1   3   5  12
  -0.235705934506E-02   1   3   5  13
   0.673565267862E-02   1   4   5   7
  -0.171616032706E-02   1   4   5   8
   0.624986342923E-03   1   4   5   9
   0.175346938480E-01   1   4   5  14
   0.100905290633E-01   1   4   5  15
   0.792752121703E-02   1   5   5   7
  -0.251624437278E-02   1   5   5   8
   0.875806682071E-02   1   5   5   9
  -0.856051061286E-02   1   5   5  14
  -0.114794659494E-01   1   5   5  15
  -0.236983003234E-01   1   5   5  16
  -0.613422754775E-02   1   6   5   7
  -0.684016878327E-02   1   6   5   8
   0.359227204754E-02   1   6   5   9
   0.114763643152E-01   1   6   5  14
  -0.854218611456E-02   1   6   5  15
   0.310037267641E-02   1   7   5   5
  -0.239903390444E-02   1   7   5   6
   0.152411182103E-02   1   7   5  10
   0.402154777161E-02   1   7   5  11
   0.583403967245E-02   1   7   5  12
   0.129752651362E-02   1   7   5  13
  -0.984077492955E-03   1   8   5   5
  -0.267512028566E-02   1   8   5   6
  -0.389512278816E-03   1   8   5  10
  -0.103021403700E-02   1   8   5  11
   0.384849895365E-03   1   8   5  12
   0.432884087787E-02   1   8   5  13
   0.342519049529E-02   1   9   5   5
   0.140490098967E-02   1   9   5   6
   0.139982948948E-03   1   9   5  10
   0.383249396628E-03   1   9   5  11
   0.380974506495E-02   1   9   5  12
  -0.416669748053E-02   1   9   5  13
   0.830137716134E-03   1  10   5   7
  -0.212155620146E-03   1  10   5   8
   0.762446379106E-04   1  10   5   9
   0.574132356066E-02   1  11   5   7
  -0.147077507062E-02   1  11   5   8
   0.547142303373E-03   1  11   5   9
   0.851928204017E-02   1  11   5  14
   0.488997921688E-02   1  11   5  15
  -0.232169570640E-04   1  11   5  16
   0.832891017463E-02   1  12   5   7
   0.549427093597E-03   1  12   5   8
   0.543894582536E-02   1  12   5   9
  -0.615005588759E-02   1  12   5  14
  -0.327804698912E-02   1  12   5  15
  -0.132722225812E-01   1  12   5  16
   0.185240099981E-02   1  13   5   7
   0.618002758864E-02   1  13   5   8
  -0.594854523587E-02   1  13   5   9
  -0.325440724980E-02   1  13   5  14
   0.614197661865E-02   1  13   5  15
   0.626291595235E-02   1  13   5  16
  -0.393639364809E-02   1  14   5   5
   0.527719507582E-02   1  14   5   6
   0.535101285437E-03   1  14   5  11
  -0.386288898276E-03   1  14   5  12
  -0.204411271360E-03   1  14   5  13
  -0.527862114858E-02   1  15   5   5
  -0.392796717740E-02   1  15   5   6
   0.307142558559E-03   1  15   5  11
  -0.205896065298E-03   1  15   5  12
   0.385781261664E-03   1  15   5  13
   0.545317457148E-02   1  16   5   5
   0.138205400935E-04   1  16   5  11
   0.790059996448E-02   1  16   5  12
  -0.372814688913E-02   1  16   5  13
   0.683647311242       1   1   6   6
   0.105050374879E-03   1   1   6  11
  -0.440147139717E-01   1   1   6  12
  -0.932745422833E-01   1   1   6  13
   0.844359996605E-02   1   2   6   6
   0.118159828447E-04   1   2   6  11
  -0.495073818429E-02   1   2   6  12
  -0.104914424312E-01   1   2   6  13
   0.543453574404E-02   1   3   6   6
   0.562565349306E-05   1   3   6  11
  -0.235706913098E-02   1   3   6  12
  -0.499502380343E-02   1   3   6  13
   0.181572627240E-02   1   4   6   7
   0.600532691595E-02   1   4   6   8
  -0.303918872470E-02   1   4   6   9
   0.100916708406E-01   1   4   6  14
  -0.175469156962E-01   1   4   6  15
  -0.613422756315E-02   1   5   6   7
  -0.684016872334E-02   1   5   6   8
   0.359227201372E-02   1   5   6   9
   0.114763642921E-01   1   5   6  14
  -0.854218604894E-02   1   5   6  15
  -0.750276279669E-02   1   6   6   7
   0.870175551741E-02   1   6   6   8
   0.373847060775E-02   1   6   6   9
   0.855687430948E-02   1   6   6  14
   0.114624856502E-01   1   6   6  15
  -0.236983006806E-01   1   6   6  16
  -0.293425417941E-02   1   7   6   6
   0.411026963258E-03   1   7   6  10
   0.107272747383E-02   1   7   6  11
  -0.140030942986E-02   1   7   6  12
   0.561062708517E-02   1   7   6  13
   0.340316792383E-02   1   8   6   6
   0.136149040632E-02   1   8   6  10
   0.358098880925E-02   1   8   6  11
  -0.590862125538E-02   1   8   6  12
  -0.294724807433E-02   1   8   6  13
   0.146207756509E-02   1   9   6   6
  -0.686754879898E-03   1   9   6  10
  -0.180720442211E-02   1   9   6  11
   0.988005615697E-03   1   9   6  12
  -0.293406090357E-02   1   9   6  13
   0.223873828211E-03   1  10   6   7
   0.741562569584E-03   1  10   6   8
  -0.374054541546E-03   1  10   6   9
   0.153146893212E-02   1  11   6   7
   0.511236394122E-02   1  11   6   8
  -0.258003780539E-02   1  11   6   9
   0.491664291915E-02   1  11   6  14
  -0.852701485617E-02   1  11   6  15
  -0.149477063592E-04   1  11   6  16
  -0.199913824418E-02   1  12   6   7
  -0.843538572292E-02   1  12   6   8
   0.141051648071E-02   1  12   6   9
   0.326387036318E-02   1  12   6  14
  -0.612214666878E-02   1  12   6  15
   0.626294225143E-02   1  12   6  16
   0.800995702171E-02   1  13   6   7
  -0.420761000645E-02   1  13   6   8
  -0.418878379844E-02   1  13   6   9
  -0.613213412553E-02   1  13   6  14
  -0.327931851011E-02   1  13   6  15
   0.132722220502E-01   1  13   6  16
   0.393472102984E-02   1  14   6   6
   0.308817333943E-03   1  14   6  11
   0.205005826235E-03   1  14   6  12
  -0.385162981607E-03   1  14   6  13
   0.527081338810E-02   1  15   6   6
  -0.535586967388E-03   1  15   6  11
  -0.384535895043E-03   1  15   6  12
  -0.205976075358E-03   1  15   6  13
   0.545317470404E-02   1  16   6   6
   0.889804625820E-05   1  16   6  11
  -0.372816229670E-02   1  16   6  12
  -0.790059962679E-02   1  16   6  13
   0.572575587118       1   1   7   7
  -0.448364527245E-02   1   2   7   7
  -0.399310338795E-02   1   3   7   7
   0.164961837154E-03   1   4   7  10
  -0.506077030225E-03   1   4   7  11
   0.652715978102E-02   1   4   7  12
  -0.554530229018E-02   1   4   7  13
   0.516252601606E-02   1   5   7  10
   0.827633355939E-02   1   5   7  11
   0.120064369141E-01   1   5   7  12
   0.267030561776E-02   1   5   7  13
   0.139224528834E-02   1   6   7  10
   0.220767000578E-02   1   6   7  11
  -0.288183281996E-02   1   6   7  12
   0.115466540006E-01   1   6   7  13
   0.346787664673E-03   1   7   7   7
  -0.427136839194E-03   1   7   7   8
   0.836827520826E-03   1   7   7   9
   0.145959727342E-03   1   7   7  14
   0.479701620624E-02   1   7   7  15
  -0.140980185297E-02   1   7   7  16
  -0.427136864116E-03   1   8   7   7
  -0.217885920986E-03   1   8   7   8
   0.963162381944E-04   1   8   7   9
  -0.744691872145E-02   1   8   7  14
  -0.169969776168E-03   1   8   7  15
   0.836827477922E-03   1   9   7   7
   0.963162411925E-04   1   9   7   8
  -0.128901689005E-03   1   9   7   9
  -0.386157361295E-02   1   9   7  14
  -0.207467654006E-02   1   9   7  15
   0.110072282493E-03   1  10   7  11
   0.256945160687E-02   1  10   7  12
  -0.218317412005E-02   1  10   7  13
   0.192939707785E-03   1  11   7  10
  -0.241918057141E-03   1  11   7  11
   0.322561531377E-02   1  11   7  12
  -0.272579140471E-02   1  11   7  13
   0.450385550053E-02   1  12   7  10
   0.322561529601E-02   1  12   7  11
   0.595586397320E-02   1  12   7  12
  -0.123594913088E-02   1  12   7  13
  -0.382677046022E-02   1  13   7  10
  -0.272579139007E-02   1  13   7  11
  -0.123594914342E-02   1  13   7  12
  -0.571394550643E-02   1  13   7  13
   0.126449678325E-03   1  14   7   7
  -0.645150615364E-02   1  14   7   8
  -0.334540598362E-02   1  14   7   9
   0.415581008963E-02   1  15   7   7
  -0.147250306156E-03   1  15   7   8
  -0.179735931441E-02   1  15   7   9
  -0.434591184261E-02   1  16   7   7
   0.572575585947       1   1   8   8
  -0.448364536373E-02   1   2   8   8
  -0.399310350948E-02   1   3   8   8
   0.236829486049E-02   1   4   8  10
  -0.758908503852E-02   1   4   8  11
  -0.504378027522E-02   1   4   8  12
  -0.578012384776E-02   1   4   8  13
  -0.131937000687E-02   1   5   8  10
  -0.212017740703E-02   1   5   8  11
   0.792019772145E-03   1   5   8  12
   0.890874192100E-02   1   5   8  13
   0.461168926058E-02   1   6   8  10
   0.736966463004E-02   1   6   8  11
  -0.121599254629E-01   1   6   8  12
  -0.606542796973E-02   1   6   8  13
  -0.217885911964E-03   1   7   8   8
   0.963162434469E-04   1   7   8   9
  -0.744691856778E-02   1   7   8  14
  -0.169969773816E-03   1   7   8  15
   0.106496005060E-02   1   8   8   8
  -0.256370428632E-03   1   8   8   9
  -0.166951815157E-02   1   8   8  14
   0.143048838448E-02   1   8   8  15
  -0.140980160015E-02   1   8   8  16
  -0.256370460567E-03   1   9   8   8
  -0.637822888185E-03   1   9   8   9
  -0.606119011184E-03   1   9   8  14
   0.608668470245E-02   1   9   8  15
   0.149513055553E-02   1  10   8  11
  -0.199503129748E-02   1  10   8  12
  -0.227263734621E-02   1  10   8  13
   0.262073546973E-02   1  11   8  10
  -0.373914974970E-02   1  11   8  11
  -0.249192398481E-02   1  11   8  12
  -0.284552954021E-02   1  11   8  13
  -0.349698477328E-02   1  12   8  10
  -0.249192393435E-02   1  12   8  11
   0.291376567198E-02   1  12   8  12
   0.525063055756E-02   1  12   8  13
  -0.398358592427E-02   1  13   8  10
  -0.284552949451E-02   1  13   8  11
   0.525063051988E-02   1  13   8  12
   0.825384063656E-03   1  13   8  13
  -0.144635743764E-02   1  14   8   8
  -0.525100485759E-03   1  14   8   9
   0.123927825237E-02   1  15   8   8
   0.527309160951E-02   1  15   8   9
  -0.434591180767E-02   1  16   8   8
   0.572575587291       1   1   9   9
  -0.448364525946E-02   1   2   9   9
  -0.399310341952E-02   1   3   9   9
   0.479387094203E-02   1   4   9  10
  -0.153431877760E-01   1   4   9  11
   0.230130804899E-02   1   4   9  12
   0.302217677002E-02   1   4   9  13
   0.474155146441E-03   1   5   9  10
   0.788726286785E-03   1   5   9  11
   0.784044468031E-02   1   5   9  12
  -0.857505140536E-02   1   5   9  13
  -0.232620070622E-02   1   6   9  10
  -0.371922140773E-02   1   6   9  11
   0.203331250698E-02   1   6   9  12
  -0.603828918947E-02   1   6   9  13
  -0.128901672163E-03   1   7   9   9
  -0.386157361911E-02   1   7   9  14
  -0.207467654206E-02   1   7   9  15
  -0.637822910901E-03   1   8   9   9
  -0.606119025899E-03   1   8   9  14
   0.608668483075E-02   1   8   9  15
  -0.580456491838E-03   1   9   9   9
   0.152355855016E-02   1   9   9  14
  -0.622750464898E-02   1   9   9  15
  -0.140980172447E-02   1   9   9  16
   0.302207079671E-02   1  10   9  11
   0.893429637519E-03   1  10   9  12
   0.120387498578E-02   1  10   9  13
   0.529722834095E-02   1  11   9  10
  -0.756499455209E-02   1  11   9  11
   0.114161306760E-02   1  11   9  12
   0.148012521048E-02   1  11   9  13
   0.156604535408E-02   1  12   9  10
   0.114161304206E-02   1  12   9  11
   0.306658690588E-02   1  12   9  12
  -0.255414781740E-02   1  12   9  13
   0.211020896305E-02   1  13   9  10
   0.148012522271E-02   1  13   9  11
  -0.255414778482E-02   1  13   9  12
   0.449840818800E-02   1  13   9  13
   0.131990804531E-02   1  14   9   9
  -0.539508850277E-02   1  15   9   9
  -0.434591175129E-02   1  16   9   9
   0.541292283820       1   1  10  10
  -0.690238570225E-02   1   2  10  10
  -0.630672381356E-02   1   3  10  10
   0.171267877070E-03   1   7  10  11
   0.399796353583E-02   1   7  10  12
  -0.339693160247E-02   1   7  10  13
   0.232636335837E-02   1   8  10  11
  -0.310418859694E-02   1   8  10  12
  -0.353613267924E-02   1   8  10  13
   0.470222150268E-02   1   9  10  11
   0.139014053856E-02   1   9  10  12
   0.187318147168E-02   1   9  10  13
   0.450199411427E-02   1  10  10  16
  -0.341243869144E-02   1  16  10  10
   0.601689369920       1   1  11  11
  -0.534921371336E-04   1   2  11  11
   0.106019664979E-02   1   3  11  11
   0.143577155138E-05   1   4  11  14
   0.519202241934E-06   1   4  11  15
  -0.120883190222E-01   1   4  11  16
   0.604242367725E-03   1   5  11  14
   0.346828815865E-03   1   5  11  15
  -0.191237388328E-04   1   5  11  16
   0.348719971991E-03   1   6  11  14
  -0.604790749057E-03   1   6  11  15
  -0.123125105058E-04   1   6  11  16
  -0.201968978360E-04   1   7  11  11
   0.269295084476E-03   1   7  11  12
  -0.227566563356E-03   1   7  11  13
  -0.312168179455E-03   1   8  11  11
  -0.208041844730E-03   1   8  11  12
  -0.237563077919E-03   1   8  11  13
  -0.631574304884E-03   1   9  11  11
   0.953091488879E-04   1   9  11  12
   0.123570385113E-03   1   9  11  13
   0.404040541174E-05   1  11  11  14
   0.664874148203E-06   1  11  11  15
  -0.772046779271E-02   1  11  11  16
   0.584905528014E-03   1  12  11  14
   0.841029132661E-03   1  12  11  15
  -0.843196428900E-03   1  13  11  14
   0.586826437570E-03   1  13  11  15
   0.462421495656E-05   1  14  11  11
   0.669440739155E-03   1  14  11  12
  -0.965061922045E-03   1  14  11  13
   0.761107758914E-06   1  15  11  11
   0.962581401416E-03   1  15  11  12
   0.671639324734E-03   1  15  11  13
   0.898364377324E-03   1  16  11  11
   0.601689370761       1   1  12  12
  -0.534921099048E-04   1   2  12  12
   0.106019661206E-02   1   3  12  12
   0.398092086949E-03   1   4  12  14
   0.572568965536E-03   1   4  12  15
   0.120406020643E-04   1   4  12  16
  -0.436201440818E-03   1   5  12  14
  -0.232500373377E-03   1   5  12  15
  -0.109322897012E-01   1   5  12  16
   0.231494802866E-03   1   6  12  14
  -0.434222225238E-03   1   6  12  15
   0.515876661672E-02   1   6  12  16
   0.497233891297E-03   1   7  12  12
  -0.103184994459E-03   1   7  12  13
   0.243259859701E-03   1   8  12  12
   0.438356399458E-03   1   8  12  13
   0.256018408603E-03   1   9  12  12
  -0.213236699465E-03   1   9  12  13
   0.584905595479E-03   1  11  12  14
   0.841029216233E-03   1  11  12  15
  -0.726171959802E-03   1  12  12  14
  -0.375520567182E-04   1  12  12  15
  -0.772046802609E-02   1  12  12  16
  -0.331993503182E-04   1  13  12  14
   0.724930510814E-03   1  13  12  15
  -0.831124243796E-03   1  14  12  12
  -0.379975062972E-04   1  14  12  13
  -0.429792966372E-04   1  15  12  12
   0.829703148633E-03   1  15  12  13
   0.898364285327E-03   1  16  12  12
   0.601689369063       1   1  13  13
  -0.534923137838E-04   1   2  13  13
   0.106019649353E-02   1   3  13  13
  -0.572424053151E-03   1   4  13  14
   0.398491331877E-03   1   4  13  15
  -0.192960908872E-04   1   4  13  16
  -0.230823677858E-03   1   5  13  14
   0.435628629393E-03   1   5  13  15
   0.515874509292E-02   1   5  13  16
  -0.434930685268E-03   1   6  13  14
  -0.232590271876E-03   1   6  13  15
   0.109322894393E-01   1   6  13  16
  -0.477036886101E-03   1   7  13  13
   0.689083746104E-04   1   8  13  13
   0.375555990392E-03   1   9  13  13
  -0.843196483729E-03   1  11  13  14
   0.586826500179E-03   1  11  13  15
  -0.331993010714E-04   1  12  13  14
   0.724930428539E-03   1  12  13  15
   0.722131924924E-03   1  13  13  14
   0.368868900477E-04   1  13  13  15
  -0.772046785276E-02   1  13  13  16
   0.826499983444E-03   1  14  13  13
   0.422182055766E-04   1  15  13  13
   0.898364125734E-03   1  16  13  13
   0.592495247826       1   1  14  14
  -0.278156399828E-02   1   2  14  14
  -0.222960506602E-02   1   3  14  14
   0.850263166542E-03   1  14  14  14
  -0.199064920998E-02   1  14  14  15
  -0.588436005790E-02   1  14  14  16
  -0.199064919901E-02   1  15  14  14
  -0.850262814893E-03   1  15  14  15
  -0.461914457456E-02   1  16  14  14
   0.592495247938       1   1  15  15
  -0.278156398725E-02   1   2  15  15
  -0.222960506072E-02   1   3  15  15
  -0.850262834839E-03   1  14  15  15
   0.199064899697E-02   1  15  15  15
  -0.588436013757E-02   1  15  15  16
  -0.461914463793E-02   1  16  15  15
   0.766169809835       1   1  16  16
   0.245313910485E-01   1   2  16  16
   0.182414379377E-01   1   3  16  16
   0.372775958970E-01   1  16  16  16
   0.574145159404       2   2   1   1
  -0.177875002206E-02   2   2   1   2
   0.210152312719E-02   2   2   1   3
   0.385828649451E-02   2   2   1  16
   0.695505975302E-01   2   3   1   1
   0.851572509903E-02   2   3   1   2
   0.201059590982E-02   2   3   1   3
   0.954573106686E-02   2   3   1  16
  -0.159933786481E-01   2   4   1   4
  -0.711765810314E-02   2   4   1  11
   0.708950806097E-05   2   4   1  12
  -0.113616348400E-04   2   4   1  13
  -0.159933785363E-01   2   5   1   5
  -0.112602084755E-04   2   5   1  11
  -0.643698279270E-02   2   5   1  12
   0.303749299163E-02   2   5   1  13
  -0.159933786036E-01   2   6   1   6
  -0.724965693980E-05   2   6   1  11
   0.303750559066E-02   2   6   1  12
   0.643698251327E-02   2   6   1  13
  -0.769905747181E-02   2   7   1   7
  -0.769905739223E-02   2   8   1   8
  -0.769905748248E-02   2   9   1   9
  -0.432018270862E-02   2  10   1  10
  -0.133825658045E-02   2  11   1   4
  -0.211709178266E-05   2  11   1   5
  -0.136307007331E-05   2  11   1   6
  -0.524750716543E-02   2  11   1  11
   0.133289764328E-05   2  12   1   4
  -0.121027671070E-02   2  12   1   5
   0.571109513678E-03   2  12   1   6
  -0.524750733475E-02   2  12   1  12
  -0.213617387897E-05   2  13   1   4
   0.571107168408E-03   2  13   1   5
   0.121027662546E-02   2  13   1   6
  -0.524750729805E-02   2  13   1  13
  -0.754859532308E-02   2  14   1  14
  -0.754859532817E-02   2  15   1  15
   0.105639293438       2  16   1   1
   0.143699541374E-01   2  16   1   2
   0.111830322597E-01   2  16   1   3
   0.182848814613E-01   2  16   1  16
   0.636478948559       2   2   2   2
  -0.538883295001E-01   2   2   2   3
  -0.551507812330E-02   2   2   2  16
  -0.538883294625E-01   2   3   2   2
   0.108002042258       2   3   2   3
   0.345012603069E-02   2   3   2  16
   0.417918371089E-01   2   4   2   4
  -0.233992628397E-01   2   4   2  11
   0.233068914746E-04   2   4   2  12
  -0.373513722045E-04   2   4   2  13
   0.417918379516E-01   2   5   2   5
  -0.370178800282E-04   2   5   2  11
  -0.211615459015E-01   2   5   2  12
   0.998574180839E-02   2   5   2  13
   0.417918375591E-01   2   6   2   6
  -0.238331029286E-04   2   6   2  11
   0.998578324181E-02   2   6   2  12
   0.211615452401E-01   2   6   2  13
   0.460970721908E-01   2   7   2   7
   0.460970721173E-01   2   8   2   8
   0.460970721554E-01   2   9   2   9
   0.438091104754E-01   2  10   2  10
  -0.233992628405E-01   2  11   2   4
  -0.370178800294E-04   2  11   2   5
  -0.238331029294E-04   2  11   2   6
   0.467696922960E-01   2  11   2  11
   0.233068914754E-04   2  12   2   4
  -0.211615459022E-01   2  12   2   5
   0.998578324214E-02   2  12   2   6
   0.467696916531E-01   2  12   2  12
  -0.373513722058E-04   2  13   2   4
   0.998574180872E-02   2  13   2   5
   0.211615452407E-01   2  13   2   6
   0.467696919194E-01   2  13   2  13
   0.356167169296E-01   2  14   2  14
   0.356167169171E-01   2  15   2  15
  -0.551507811754E-02   2  16   2   2
   0.345012602407E-02   2  16   2   3
   0.261103997233E-01   2  16   2  16
   0.666476043673       2   2   3   3
   0.803403276968E-04   2   2   3  16
  -0.115580434888       2   3   3   3
  -0.852055345992E-02   2   3   3  16
   0.318366003578E-02   2   4   3   4
   0.244077217494E-01   2   4   3  11
  -0.243112967381E-04   2   4   3  12
   0.389610988510E-04   2   4   3  13
   0.318365944740E-02   2   5   3   5
   0.386132484574E-04   2   5   3  11
   0.220735628762E-01   2   5   3  12
  -0.104161057172E-01   2   5   3  13
   0.318365979389E-02   2   6   3   6
   0.248602612565E-04   2   6   3  11
  -0.104161489171E-01   2   6   3  12
  -0.220735621253E-01   2   6   3  13
   0.268503238938E-01   2   7   3   7
   0.268503243962E-01   2   8   3   8
   0.268503239109E-01   2   9   3   9
   0.429259120116E-01   2  10   3  10
   0.177171472404E-01   2  11   3   4
   0.280286664726E-04   2  11   3   5
   0.180456043135E-04   2  11   3   6
  -0.100710510828E-01   2  11   3  11
  -0.176471453013E-04   2  12   3   4
   0.160228213594E-01   2  12   3   5
  -0.756090415682E-02   2  12   3   6
  -0.100710493118E-01   2  12   3  12
   0.282811613325E-04   2  13   3   4
  -0.756087280926E-02   2  13   3   5
  -0.160228207558E-01   2  13   3   6
  -0.100710494913E-01   2  13   3  13
   0.123954672164E-01   2  14   3  14
   0.123954672220E-01   2  15   3  15
  -0.104829533728E-01   2  16   3   3
   0.259526861772E-01   2  16   3  16
   0.599278554723       2   2   4   4
  -0.270343657764E-01   2   2   4  11
   0.269275873356E-04   2   2   4  12
  -0.431538999846E-04   2   2   4  13
   0.334954536487E-02   2   3   4   4
   0.429236643758E-01   2   3   4  11
  -0.427541452944E-04   2   3   4  12
   0.685173657088E-04   2   3   4  13
   0.132251692687E-03   2   4   4   7
   0.192590435258E-02   2   4   4   8
   0.389088825455E-02   2   4   4   9
  -0.680236754252E-05   2   4   4  14
  -0.317541339995E-04   2   4   4  15
   0.246891368533E-01   2   4   4  16
  -0.209719444268E-02   2   5   4   7
   0.534339043441E-03   2   5   4   8
  -0.194593742172E-03   2   5   4   9
  -0.327919057386E-01   2   5   4  14
  -0.188704565440E-01   2   5   4  15
  -0.565339737053E-03   2   6   4   7
  -0.186980249406E-02   2   6   4   8
   0.946273633836E-03   2   6   4   9