       N       E                     dE             d eps       ncg     rms          rms(c)
DAV:   1     0.324519667659E+01    0.32452E+01   -0.12445E+03   176   0.335E+01
DAV:   2     0.257773639451E+00   -0.29874E+01   -0.29131E+01   232   0.970E+00
DAV:   3     0.159591724702E+00   -0.98182E-01   -0.96766E-01   232   0.802E-01
DAV:   4     0.158139685748E+00   -0.14520E-02   -0.14504E-02   192   0.137E-01
DAV:   5     0.158111008413E+00   -0.28677E-04   -0.28675E-04   184   0.325E-02    0.437E+00
RMM:   6     0.108410410719E+01    0.92599E+00   -0.57126E-01   184   0.113E+00    0.192E+00
RMM:   7    -0.198990161424E-01   -0.11040E+01   -0.27496E-01   176   0.603E-01    0.166E-01
RMM:   8    -0.739851531803E-01   -0.54086E-01   -0.10382E-02   176   0.170E-01    0.108E-01
RMM:   9    -0.139254299754E+00   -0.65269E-01   -0.11038E-02   173   0.858E-02    0.552E-02
RMM:  10    -0.186400947969E+00   -0.47147E-01   -0.85285E-03   179   0.861E-02    0.298E-02
RMM:  11    -0.277011333276E+00   -0.90610E-01   -0.52982E-03   200   0.573E-02    0.191E-02
RMM:  12    -0.288372981977E+00   -0.11362E-01   -0.67415E-04   193   0.215E-02    0.126E-02
RMM:  13    -0.294701184010E+00   -0.63282E-02   -0.46437E-04   183   0.141E-02    0.533E-03
RMM:  14    -0.295007823383E+00   -0.30664E-03   -0.23671E-05   195   0.700E-03    0.349E-03
RMM:  15    -0.295397405663E+00   -0.38958E-03   -0.41884E-05   182   0.524E-03    0.166E-03
RMM:  16    -0.295685212290E+00   -0.28781E-03   -0.14298E-05   195   0.415E-03    0.107E-03
RMM:  17    -0.295878174006E+00   -0.19296E-03   -0.51054E-06   199   0.286E-03    0.747E-04
RMM:  18    -0.295960020944E+00   -0.81847E-04   -0.81963E-07   196   0.112E-03    0.384E-04
RMM:  19    -0.295997249926E+00   -0.37229E-04   -0.40853E-07   193   0.720E-04    0.281E-04
RMM:  20    -0.296007277335E+00   -0.10027E-04   -0.29775E-07   200   0.560E-04    0.148E-04
RMM:  21    -0.296019303007E+00   -0.12026E-04   -0.17756E-07   198   0.428E-04    0.107E-04
RMM:  22    -0.296024809318E+00   -0.55063E-05   -0.35489E-08   206   0.228E-04
   1 F= -.29602481E+00 E0= -.29650797E+00  d E =0.144948E-02  mag=     1.0000
 imaginary and real dielectric function
