unknown system                          
           1
    15.000000    0.000000    0.000000
     0.000000   15.000000    0.000000
     0.000000    0.000000   15.000000
   Li
   1
Direct configuration=     1
   0.50000000  0.50000000  0.50000000
