       N       E                     dE             d eps       ncg     rms          rms(c)
DAV:   1     0.225508626753E+01    0.22551E+01   -0.25627E+01   160   0.471E+00
DAV:   2    -0.622778363271E+00   -0.28779E+01   -0.27223E+01   232   0.400E+00
DAV:   3    -0.828443494085E+00   -0.20567E+00   -0.20474E+00   208   0.890E-01
DAV:   4    -0.830335839879E+00   -0.18923E-02   -0.18917E-02   192   0.916E-02
DAV:   5    -0.830344393628E+00   -0.85537E-05   -0.85540E-05   192   0.602E-03    0.216E+00
RMM:   6     0.163559546412E+01    0.24659E+01   -0.56012E-02   186   0.123E-01    0.785E-01
RMM:   7    -0.684946417236E-01   -0.17041E+01   -0.15785E-02   172   0.740E-02    0.324E-01
RMM:   8    -0.773605773705E+00   -0.70511E+00   -0.38354E-02   163   0.918E-02    0.166E-01
RMM:   9    -0.106510131336E+01   -0.29150E+00   -0.14784E-03   168   0.177E-02    0.310E-02
RMM:  10    -0.110168670746E+01   -0.36585E-01   -0.94909E-05   172   0.558E-03    0.142E-02
RMM:  11    -0.111256291641E+01   -0.10876E-01   -0.38226E-04   160   0.878E-03    0.672E-03
RMM:  12    -0.111102787170E+01    0.15350E-02   -0.29718E-05   161   0.624E-03    0.330E-03
RMM:  13    -0.111244230112E+01   -0.14144E-02   -0.77054E-06   162   0.229E-03    0.272E-03
RMM:  14    -0.111313601775E+01   -0.69372E-03   -0.29546E-06   161   0.157E-03    0.171E-03
RMM:  15    -0.111425896962E+01   -0.11230E-02   -0.58582E-07   161   0.431E-04    0.120E-03
RMM:  16    -0.111534262327E+01   -0.10837E-02   -0.42998E-07   161   0.280E-04    0.556E-04
RMM:  17    -0.111587017532E+01   -0.52755E-03   -0.16310E-07   161   0.267E-04    0.261E-04
RMM:  18    -0.111597773466E+01   -0.10756E-03   -0.97715E-08   161   0.172E-04    0.177E-04
RMM:  19    -0.111592752690E+01    0.50208E-04   -0.84971E-08   165   0.156E-04    0.144E-04
RMM:  20    -0.111602835310E+01   -0.10083E-03   -0.22307E-08   164   0.720E-05    0.496E-05
RMM:  21    -0.111604480480E+01   -0.16452E-04    0.00000E+00   166   0.304E-05    0.192E-05
RMM:  22    -0.111605416938E+01   -0.93646E-05    0.00000E+00   164   0.257E-05
   1 F= -.11160542E+01 E0= -.11165373E+01  d E =0.144948E-02  mag=     1.0000
 imaginary and real dielectric function
