 &FCI NORB=           32 ,NELEC=          32 ,MS2=            0 ,
  ORBSYM=
                   0,                   0,                   0,                   0,                   0,                   0,                   0,                   0,                   0,                   0,                   0,                   0,                   0,                   0,                   0,                   0,                   0,                   0,                   0,                   0,                   0,                   0,                   0,                   0,                   0,                   0,                   0,                   0,                   0,                   0,                   0,                   0,
  ISYM=           1
 NPROP =           1           1           1
 PROPBITLEN=          15
 &END
   0.434542832506       1   1   1   1
   0.250691063134E-04   1   1   1   6
  -0.573509425737E-04   1   1   1   7
  -0.325365739999E-04   1   1   1   8
   0.208564465289E-01   1   1   1   9
   0.411221705925E-05   1   1   1  14
   0.353246072790E-05   1   1   1  15
  -0.166048698217E-05   1   1   1  16
   0.176001035603       1   2   1   2
  -0.200244289693E-06   1   2   1   3
  -0.412478743620E-06   1   2   1   4
  -0.611216892540E-06   1   2   1   5
   0.186410852726E-01   1   2   1  20
   0.132224724050E-01   1   2   1  21
  -0.477514613197E-03   1   2   1  22
   0.467869792678E-03   1   2   1  23
  -0.200244289693E-06   1   3   1   2
   0.175962253391       1   3   1   3
   0.240542810183E-05   1   3   1   4
   0.363270873511E-05   1   3   1   5
  -0.130350371414E-01   1   3   1  20
   0.181915699549E-01   1   3   1  21
  -0.603129653084E-03   1   3   1  22
   0.461806192821E-02   1   3   1  23
  -0.412478743620E-06   1   4   1   2
   0.240542810183E-05   1   4   1   3
   0.175865070910       1   4   1   4
   0.869938533336E-05   1   4   1   5
   0.112982087593E-02   1   4   1  20
  -0.124676762689E-02   1   4   1  21
   0.200999615714E-01   1   4   1  22
   0.107287704440E-01   1   4   1  23
  -0.611216892540E-06   1   5   1   2
   0.363270873511E-05   1   5   1   3
   0.869938533336E-05   1   5   1   4
   0.175816723753       1   5   1   5
   0.200062455225E-02   1   5   1  20
  -0.390623914993E-02   1   5   1  21
  -0.108274907533E-01   1   5   1  22
   0.196254875650E-01   1   5   1  23
   0.250691063134E-04   1   6   1   1
   0.167639584792       1   6   1   6
  -0.719166406895E-07   1   6   1   7
  -0.226828598635E-07   1   6   1   8
   0.166633498202E-05   1   6   1   9
   0.802489814395E-02   1   6   1  14
  -0.397826742040E-02   1   6   1  15
   0.523541526388E-03   1   6   1  16
  -0.573509425737E-04   1   7   1   1
  -0.719166406888E-07   1   7   1   6
   0.167571670155       1   7   1   7
  -0.381463146565E-05   1   7   1   9
  -0.295688100055E-02   1   7   1  14
  -0.507239196781E-02   1   7   1  15
   0.677932846854E-02   1   7   1  16
  -0.325365739999E-04   1   8   1   1
  -0.226828598642E-07   1   8   1   6
   0.167498443229       1   8   1   8
  -0.216268860051E-05   1   8   1   9
  -0.270874576489E-02   1   8   1  14
  -0.623327159466E-02   1   8   1  15
  -0.584527475900E-02   1   8   1  16
   0.208564465290E-01   1   9   1   1
   0.166633498202E-05   1   9   1   6
  -0.381463146568E-05   1   9   1   7
  -0.216268860051E-05   1   9   1   8
   0.349250895634E-02   1   9   1   9
   0.464551384647E-06   1   9   1  14
   0.399157731135E-06   1   9   1  15
  -0.187580274113E-06   1   9   1  16
   0.934618832151E-03   1  10   1  10
   0.559032211654E-07   1  10   1  11
   0.101944845620E-07   1  10   1  12
   0.693127934185E-07   1  10   1  13
   0.559032211654E-07   1  11   1  10
   0.934626940975E-03   1  11   1  11
   0.118068692100E-06   1  11   1  12
   0.101944845620E-07   1  12   1  10
   0.118068692100E-06   1  12   1  11
   0.934788458293E-03   1  12   1  12
  -0.198183847555E-07   1  12   1  13
   0.693127934185E-07   1  13   1  10
  -0.198183847555E-07   1  13   1  12
   0.934727426361E-03   1  13   1  13
   0.411221705928E-05   1  14   1   1
   0.802489814400E-02   1  14   1   6
  -0.295688100057E-02   1  14   1   7
  -0.270874576491E-02   1  14   1   8
   0.464551384636E-06   1  14   1   9
   0.769270453542E-03   1  14   1  14
  -0.154448241308E-06   1  14   1  15
  -0.398350559930E-07   1  14   1  16
   0.353246072792E-05   1  15   1   1
  -0.397826742042E-02   1  15   1   6
  -0.507239196784E-02   1  15   1   7
  -0.623327159469E-02   1  15   1   8
   0.399157731135E-06   1  15   1   9
  -0.154448241307E-06   1  15   1  14
   0.769015264592E-03   1  15   1  15
  -0.127585162344E-06   1  15   1  16
  -0.166048698219E-05   1  16   1   1
   0.523541526391E-03   1  16   1   6
   0.677932846858E-02   1  16   1   7
  -0.584527475903E-02   1  16   1   8
  -0.187580274093E-06   1  16   1   9
  -0.398350559921E-07   1  16   1  14
  -0.127585162339E-06   1  16   1  15
   0.768983119772E-03   1  16   1  16
   0.182007992155E-02   1  17   1  17
   0.167039585026E-06   1  17   1  24
  -0.882526206185E-07   1  17   1  25
  -0.106991290097E-07   1  17   1  26
   0.172913587939E-06   1  17   1  27
  -0.250629498539E-06   1  17   1  28
   0.178079630978E-06   1  17   1  29
   0.182008066853E-02   1  18   1  18
   0.921353084720E-07   1  18   1  25
  -0.916471846958E-07   1  18   1  26
  -0.527419112724E-06   1  18   1  27
   0.532777635044E-06   1  18   1  28
   0.952483814777E-07   1  18   1  29
   0.182007933651E-02   1  19   1  19
  -0.125607427932E-07   1  19   1  24
  -0.622200500697E-06   1  19   1  25
  -0.328967676451E-06   1  19   1  26
  -0.364692342206E-06   1  19   1  27
  -0.206457794135E-06   1  19   1  28
  -0.665897999219E-07   1  19   1  29
   0.186410852728E-01   1  20   1   2
  -0.130350371415E-01   1  20   1   3
   0.112982087594E-02   1  20   1   4
   0.200062455226E-02   1  20   1   5
   0.436099849542E-02   1  20   1  20
   0.520006375302E-06   1  20   1  21
   0.319471431700E-07   1  20   1  22
  -0.362064622044E-06   1  20   1  23
   0.132224724050E-01   1  21   1   2
   0.181915699550E-01   1  21   1   3
  -0.124676762690E-02   1  21   1   4
  -0.390623914995E-02   1  21   1   5
   0.520006375237E-06   1  21   1  20
   0.436059700989E-02   1  21   1  21
  -0.204141356429E-06   1  21   1  22
   0.632951393812E-06   1  21   1  23
  -0.477514613200E-03   1  22   1   2
  -0.603129653088E-03   1  22   1   3
   0.200999615715E-01   1  22   1   4
  -0.108274907533E-01   1  22   1   5
   0.319471431675E-07   1  22   1  20
  -0.204141356424E-06   1  22   1  21
   0.435760794915E-02   1  22   1  22
   0.578887111518E-06   1  22   1  23
   0.467869792681E-03   1  23   1   2
   0.461806192824E-02   1  23   1   3
   0.107287704441E-01   1  23   1   4
   0.196254875651E-01   1  23   1   5
  -0.362064622079E-06   1  23   1  20
   0.632951393833E-06   1  23   1  21
   0.578887111538E-06   1  23   1  22
   0.435754670621E-02   1  23   1  23
   0.167039585026E-06   1  24   1  17
  -0.125607427932E-07   1  24   1  19
   0.239492916355E-02   1  24   1  24
   0.217705952876E-07   1  24   1  25
  -0.743259102818E-07   1  24   1  27
   0.103166844859E-07   1  24   1  28
  -0.882526206184E-07   1  25   1  17
   0.921353084719E-07   1  25   1  18
  -0.622200500696E-06   1  25   1  19
   0.217705952876E-07   1  25   1  24
   0.239424484546E-02   1  25   1  25
  -0.366064626472E-07   1  25   1  26
  -0.130670626603E-06   1  25   1  27
   0.101631319320E-07   1  25   1  29
  -0.106991290097E-07   1  26   1  17
  -0.916471846958E-07   1  26   1  18
  -0.328967676451E-06   1  26   1  19
  -0.366064626473E-07   1  26   1  25
   0.239399484924E-02   1  26   1  26
  -0.130820143518E-06   1  26   1  28
   0.747858061753E-07   1  26   1  29
   0.172913587939E-06   1  27   1  17
  -0.527419112723E-06   1  27   1  18
  -0.364692342206E-06   1  27   1  19
  -0.743259102818E-07   1  27   1  24
  -0.130670626603E-06   1  27   1  25
   0.239403286386E-02   1  27   1  27
  -0.401260176025E-07   1  27   1  28
  -0.250629498539E-06   1  28   1  17
   0.532777635044E-06   1  28   1  18
  -0.206457794135E-06   1  28   1  19
   0.103166844859E-07   1  28   1  24
  -0.130820143518E-06   1  28   1  26
  -0.401260176025E-07   1  28   1  27
   0.239378448511E-02   1  28   1  28
   0.209375309576E-07   1  28   1  29
   0.178079630978E-06   1  29   1  17
   0.952483814776E-07   1  29   1  18
  -0.665897999219E-07   1  29   1  19
   0.101631319320E-07   1  29   1  25
   0.747858061753E-07   1  29   1  26
   0.209375309576E-07   1  29   1  28
   0.239309967776E-02   1  29   1  29
   0.253418874170E-03   1  30   1  30
   0.253418984615E-03   1  31   1  31
   0.253419244580E-03   1  32   1  32
   0.435103255434       1   1   2   2
  -0.190725002867E-06   1   1   2   3
  -0.392649264779E-06   1   1   2   4
  -0.582102617403E-06   1   1   2   5
   0.184848053718E-01   1   1   2  20
   0.131116205880E-01   1   1   2  21
  -0.473510829461E-03   1   1   2  22
   0.463945749654E-03   1   1   2  23
   0.277921923305       1   2   2   6
  -0.120758286293       1   2   2   7
  -0.365783328207E-01   1   2   2   8
   0.223506372859E-01   1   2   2   9
   0.162303392300E-01   1   2   2  14
  -0.159738412478E-02   1   2   2  15
  -0.277621501464E-02   1   2   2  16
   0.120105183864E-05   1   2   2  30
  -0.449562705403E-05   1   2   2  31
   0.774562370378E-05   1   2   2  32
  -0.280493413419E-02   1   3   2   6
  -0.604884841777E-03   1   3   2   7
  -0.653557403512E-04   1   3   2   8
  -0.132276932861E-07   1   3   2   9
  -0.124088345282E-03   1   3   2  14
   0.884084724652E-04   1   3   2  15
  -0.313414701561E-04   1   3   2  16
   0.375418784766E-04   1   3   2  30
  -0.566324775244E-03   1   3   2  31
   0.195850269365E-03   1   3   2  32
  -0.110514178392E-02   1   4   2   6
   0.116398963459E-02   1   4   2   7
  -0.759101917417E-03   1   4   2   8
  -0.256529081918E-07   1   4   2   9
  -0.619383017983E-04   1   4   2  14
   0.194847061846E-04   1   4   2  15
   0.710173330350E-04   1   4   2  16
   0.482558750781E-03   1   4   2  30
   0.142100984972E-03   1   4   2  31
   0.325838727867E-03   1   4   2  32
  -0.112392599101E-02   1   5   2   6
   0.842101208031E-03   1   5   2   7
   0.782857890292E-03   1   5   2   8
  -0.397040137292E-07   1   5   2   9
  -0.823489871296E-04   1   5   2  14
  -0.283055808548E-04   1   5   2  15
   0.327909395172E-05   1   5   2  16
  -0.349252514501E-03   1   5   2  30
   0.134714699847E-03   1   5   2  31
   0.471068786596E-03   1   5   2  32
   0.264629757049       1   6   2   2
  -0.267078258252E-02   1   6   2   3
  -0.105228607309E-02   1   6   2   4
  -0.107017214115E-02   1   6   2   5
   0.306844090448E-01   1   6   2  20
   0.213606098232E-01   1   6   2  21
  -0.830194443587E-03   1   6   2  22
   0.489408650468E-03   1   6   2  23
  -0.114982781448       1   7   2   2
  -0.575954972784E-03   1   7   2   3
   0.110831951712E-02   1   7   2   4
   0.801826068883E-03   1   7   2   5
  -0.131838612358E-01   1   7   2  20
  -0.948972726086E-02   1   7   2  21
   0.425585037219E-03   1   7   2  22
  -0.178112445135E-03   1   7   2  23
  -0.348289001119E-01   1   8   2   2
  -0.622299529856E-04   1   8   2   3
  -0.722796378144E-03   1   8   2   4
   0.745416010898E-03   1   8   2   5
  -0.400368246531E-02   1   8   2  20
  -0.286585015290E-02   1   8   2  21
  -0.367868004916E-04   1   8   2  22
  -0.599675916483E-04   1   8   2  23
   0.209401228997E-01   1   9   2   2
  -0.127377122670E-07   1   9   2   3
  -0.257065438361E-07   1   9   2   4
  -0.390705736391E-07   1   9   2   5
   0.315425732316E-02   1   9   2  20
   0.223737501360E-02   1   9   2  21
  -0.807992818128E-04   1   9   2  22
   0.791770919705E-04   1   9   2  23
  -0.326999891134E-03   1  10   2  17
  -0.486346338861E-03   1  10   2  18
   0.197100043312E-03   1  10   2  19
  -0.818126320371E-03   1  10   2  24
  -0.493879363862E-03   1  10   2  25
   0.645651414183E-04   1  10   2  26
   0.494601144360E-03   1  10   2  27
  -0.743322307168E-04   1  10   2  28
   0.601813867818E-06   1  10   2  29
  -0.201941721397E-03   1  11   2  17
  -0.443168324678E-03   1  11   2  18
  -0.161348106800E-03   1  11   2  19
  -0.527187139150E-03   1  11   2  24
   0.814304847723E-04   1  11   2  25
  -0.233091866368E-04   1  11   2  26
   0.683300577256E-03   1  11   2  27
  -0.103070905269E-03   1  11   2  28
  -0.331142758528E-05   1  11   2  29
   0.366873652802E-03   1  12   2  17
  -0.265540822407E-03   1  12   2  18
  -0.554168879573E-03   1  12   2  19
   0.539163601504E-03   1  12   2  24
   0.645455398654E-03   1  12   2  25
  -0.102300364986E-03   1  12   2  26
   0.905791577951E-03   1  12   2  27
  -0.141941240345E-03   1  12   2  28
  -0.720569445186E-05   1  12   2  29
   0.535724696573E-03   1  13   2  17
  -0.279535935965E-03   1  13   2  18
   0.439652638304E-03   1  13   2  19
   0.699615066225E-03   1  13   2  24
  -0.100996932242E-02   1  13   2  25
   0.159843137242E-03   1  13   2  26
   0.393097041709E-03   1  13   2  27
  -0.701577401864E-04   1  13   2  28
   0.405268590538E-05   1  13   2  29
   0.152672592267E-01   1  14   2   2
  -0.116725957202E-03   1  14   2   3
  -0.582632292033E-04   1  14   2   4
  -0.774623719332E-04   1  14   2   5
   0.234776836866E-02   1  14   2  20
   0.164338379703E-02   1  14   2  21
  -0.620170487516E-04   1  14   2  22
   0.366102049837E-04   1  14   2  23
  -0.150270062252E-02   1  15   2   2
   0.831626887660E-04   1  15   2   3
   0.183282276278E-04   1  15   2   4
  -0.266249952362E-04   1  15   2   5
  -0.239186663951E-03   1  15   2  20
  -0.150060465986E-03   1  15   2  21
   0.108779432085E-04   1  15   2  22
  -0.529993979737E-05   1  15   2  23
  -0.261145449086E-02   1  16   2   2
  -0.294816577618E-04   1  16   2   3
   0.668018177751E-04   1  16   2   4
   0.308482458650E-05   1  16   2   5
  -0.395933244318E-03   1  16   2  20
  -0.288746896717E-03   1  16   2  21
   0.211471382786E-04   1  16   2  22
  -0.476658654978E-05   1  16   2  23
  -0.287016727118E-03   1  17   2  10
  -0.177250956463E-03   1  17   2  11
   0.322008156336E-03   1  17   2  12
   0.470211276246E-03   1  17   2  13
  -0.426868526095E-03   1  18   2  10
  -0.388968120177E-03   1  18   2  11
  -0.233057978330E-03   1  18   2  12
  -0.245345667429E-03   1  18   2  13
   0.172996026179E-03   1  19   2  10
  -0.141611708494E-03   1  19   2  11
  -0.486388710604E-03   1  19   2  12
   0.385881776627E-03   1  19   2  13
   0.296406360984E-01   1  20   2   6
  -0.127353943541E-01   1  20   2   7
  -0.386749165770E-02   1  20   2   8
   0.314411995226E-02   1  20   2   9
   0.234566025591E-02   1  20   2  14
  -0.238970783521E-03   1  20   2  15
  -0.395577989755E-03   1  20   2  16
   0.323239852416E-05   1  20   2  30
  -0.402361931625E-04   1  20   2  31
   0.570634569030E-05   1  20   2  32
   0.206339978281E-01   1  21   2   6
  -0.916692046110E-02   1  21   2   7
  -0.276836410936E-02   1  21   2   8
   0.223018434669E-02   1  21   2   9
   0.164190816762E-02   1  21   2  14
  -0.149924937626E-03   1  21   2  15
  -0.288487808773E-03   1  21   2  16
  -0.761583117719E-05   1  21   2  30
   0.576105442187E-04   1  21   2  31
  -0.737148441820E-05   1  21   2  32
  -0.801954367191E-03   1  22   2   6
   0.411107188011E-03   1  22   2   7
  -0.355332482899E-04   1  22   2   8
  -0.805396329802E-04   1  22   2   9
  -0.619613699013E-04   1  22   2  14
   0.108681487530E-04   1  22   2  15
   0.211281574409E-04   1  22   2  16
  -0.701351540616E-04   1  22   2  30
  -0.906807674541E-05   1  22   2  31
  -0.690107503407E-05   1  22   2  32
   0.472759899558E-03   1  23   2   6
  -0.172054699520E-03   1  23   2   7
  -0.579275731188E-04   1  23   2   8
   0.789225574550E-04   1  23   2   9
   0.365773267218E-04   1  23   2  14
  -0.529515466598E-05   1  23   2  15
  -0.476231565075E-05   1  23   2  16
   0.785034915287E-05   1  23   2  30
  -0.809988465971E-05   1  23   2  31
  -0.711276899215E-04   1  23   2  32
  -0.586446725480E-03   1  24   2  10
  -0.377897070581E-03   1  24   2  11
   0.386479805738E-03   1  24   2  12
   0.501494161809E-03   1  24   2  13
  -0.354015819164E-03   1  25   2  10
   0.583686014252E-04   1  25   2  11
   0.462664490963E-03   1  25   2  12
  -0.723951012487E-03   1  25   2  13
   0.462783786106E-04   1  26   2  10
  -0.167008704297E-04   1  26   2  11
  -0.733131851151E-04   1  26   2  12
   0.114564873592E-03   1  26   2  13
   0.354529804590E-03   1  27   2  10
   0.489788965043E-03   1  27   2  11
   0.649267338788E-03   1  27   2  12
   0.281769671735E-03   1  27   2  13
  -0.532941233614E-04   1  28   2  10
  -0.738883688015E-04   1  28   2  11
  -0.101746204639E-03   1  28   2  12
  -0.503114353320E-04   1  28   2  13
   0.423738935378E-06   1  29   2  10
  -0.237771263564E-05   1  29   2  11
  -0.515953950231E-05   1  29   2  12
   0.290708132547E-05   1  29   2  13
   0.673700891253E-07   1  30   2   3
   0.866083127595E-06   1  30   2   4
  -0.626862018933E-06   1  30   2   5
   0.316399566856E-05   1  30   2  20
  -0.745459954829E-05   1  30   2  21
  -0.686498638643E-04   1  30   2  22
   0.768301887429E-05   1  30   2  23
  -0.101622221123E-05   1  31   2   3
   0.255064073894E-06   1  31   2   4
   0.241816950776E-06   1  31   2   5
  -0.393866083461E-04   1  31   2  20
   0.563939977786E-04   1  31   2  21
  -0.887647258306E-05   1  31   2  22
  -0.792729198640E-05   1  31   2  23
   0.138367399534E-07   1  32   2   2
   0.351370208506E-06   1  32   2   3
   0.584746119204E-06   1  32   2   4
   0.845428487485E-06   1  32   2   5
   0.558651382660E-05   1  32   2  20
  -0.721679291264E-05   1  32   2  21
  -0.675585675599E-05   1  32   2  22
  -0.696215738329E-04   1  32   2  23
   0.435066330984       1   1   3   3
   0.229017508581E-05   1   1   3   4
   0.345926725802E-05   1   1   3   5
  -0.129257014274E-01   1   1   3  20
   0.180389827233E-01   1   1   3  21
  -0.598070395395E-03   1   1   3  22
   0.457933789177E-02   1   1   3  23
  -0.280493418446E-02   1   2   3   6
  -0.604884825211E-03   1   2   3   7
  -0.653557364134E-04   1   2   3   8
  -0.125810086745E-07   1   2   3   9
  -0.124088577217E-03   1   2   3  14
   0.884088948548E-04   1   2   3  15
  -0.313417527132E-04   1   2   3  16
   0.375466890798E-04   1   2   3  30
  -0.566412478665E-03   1   2   3  31
   0.195871221221E-03   1   2   3  32
  -0.211170970052       1   3   3   6
  -0.214306669780       1   3   3   7
  -0.477155105053E-01   1   3   3   8
   0.223482081976E-01   1   3   3   9
  -0.562416221477E-02   1   3   3  14
   0.134431107722E-01   1   3   3  15
  -0.776185668098E-02   1   3   3  16
   0.854128405679E-05   1   3   3  30
  -0.969738721634E-05   1   3   3  31
  -0.437797420424E-04   1   3   3  32
  -0.461451461440E-02   1   4   3   6
  -0.124201872332E-01   1   4   3   7
   0.588719969308E-02   1   4   3   8
   0.150657758724E-06   1   4   3   9
  -0.981665467493E-04   1   4   3  14
   0.269742689568E-03   1   4   3  15
  -0.731473699460E-03   1   4   3  16
  -0.497445253039E-03   1   4   3  30
   0.986979211060E-04   1   4   3  31
   0.321934833768E-03   1   4   3  32
  -0.479685377500E-02   1   5   3   6
  -0.917481869644E-02   1   5   3   7
  -0.621042963987E-02   1   5   3   8
   0.231272944725E-06   1   5   3   9
   0.331218991601E-04   1   5   3  14
   0.630547157823E-03   1   5   3  15
  -0.171569913431E-03   1   5   3  16
   0.338476256500E-03   1   5   3  30
   0.219432265278E-03   1   5   3  31
   0.442450051813E-03   1   5   3  32
  -0.201071307110       1   6   3   3
  -0.439381622806E-02   1   6   3   4
  -0.456743523618E-02   1   6   3   5
   0.158084417014E-01   1   6   3  20
  -0.226873976122E-01   1   6   3  21
   0.517389529619E-03   1   6   3  22
  -0.659374288841E-02   1   6   3  23
  -0.204057034364       1   7   3   3
  -0.118261675550E-01   1   7   3   4
  -0.873601538808E-02   1   7   3   5
   0.161868517812E-01   1   7   3  20
  -0.226939086251E-01   1   7   3  21
  -0.122470790312E-03   1   7   3  22
  -0.767229646554E-02   1   7   3  23
  -0.454334212995E-01   1   8   3   3
   0.560563292273E-02   1   8   3   4
  -0.591340336486E-02   1   8   3   5
   0.362007204151E-02   1   8   3  20
  -0.501503750576E-02   1   8   3  21
   0.126278776907E-02   1   8   3  22
  -0.164320260361E-02   1   8   3  23
   0.209376878070E-01   1   9   3   3
   0.151204816475E-06   1   9   3   4
   0.230737695160E-06   1   9   3   5
  -0.220591767278E-02   1   9   3  20
   0.307856319263E-02   1   9   3  21
  -0.102072181868E-03   1   9   3  22
   0.781464363908E-03   1   9   3  23
   0.520095741555E-03   1  10   3  17
  -0.117946779002E-03   1  10   3  18
  -0.197634026913E-03   1  10   3  19
  -0.753968328931E-03   1  10   3  24
   0.523868691072E-04   1  10   3  25
   0.464143689824E-03   1  10   3  26
  -0.224222255398E-04   1  10   3  27
  -0.448708760517E-03   1  10   3  28
   0.145830396217E-04   1  10   3  29
  -0.374329055808E-03   1  11   3  17
  -0.476172534352E-03   1  11   3  18
   0.225034035449E-03   1  11   3  19
   0.977075053415E-03   1  11   3  24
   0.167530019153E-04   1  11   3  25
  -0.919717782026E-04   1  11   3  26
  -0.159502123594E-03   1  11   3  27
  -0.648273819498E-03   1  11   3  28
  -0.244446471590E-04   1  11   3  29
   0.434427463369E-03   1  12   3  17
  -0.272108920631E-03   1  12   3  18
   0.504709881373E-03   1  12   3  19
  -0.410338403311E-03   1  12   3  24
  -0.105792766625E-03   1  12   3  25
  -0.630897907710E-03   1  12   3  26
  -0.127569932468E-03   1  12   3  27
  -0.935856626552E-03   1  12   3  28
  -0.643434486459E-04   1  12   3  29
   0.548347964459E-04   1  13   3  17
  -0.471579652881E-03   1  13   3  18
  -0.481719189618E-03   1  13   3  19
   0.169268577151E-03   1  13   3  24
   0.166782958983E-03   1  13   3  25
   0.102907316782E-02   1  13   3  26
  -0.695369562245E-04   1  13   3  27
  -0.432970072466E-03   1  13   3  28
   0.482344328278E-04   1  13   3  29
  -0.529052194923E-02   1  14   3   3
  -0.923422752293E-04   1  14   3   4
   0.311501490754E-04   1  14   3   5
   0.548214613765E-03   1  14   3  20
  -0.803232572539E-03   1  14   3  21
   0.864077729284E-05   1  14   3  22
  -0.204212819662E-03   1  14   3  23
   0.126452820377E-01   1  15   3   3
   0.253738614666E-03   1  15   3   4
   0.593120081346E-03   1  15   3   5
  -0.132905702162E-02   1  15   3  20
   0.187687877687E-02   1  15   3  21
  -0.738595328182E-04   1  15   3  22
   0.597980420894E-03   1  15   3  23
  -0.730121222600E-02   1  16   3   3
  -0.688053861557E-03   1  16   3   4
  -0.161390820657E-03   1  16   3   5
   0.768164897018E-03   1  16   3  20
  -0.108193588209E-02   1  16   3  21
  -0.630089207390E-04   1  16   3  22
  -0.363727677317E-03   1  16   3  23
   0.456492346898E-03   1  17   3  10
  -0.328560072640E-03   1  17   3  11
   0.381294812165E-03   1  17   3  12
   0.481245992330E-04   1  17   3  13
  -0.103515278945E-03   1  18   3  10
  -0.417934835272E-03   1  18   3  11
  -0.238819933084E-03   1  18   3  12
  -0.413901147369E-03   1  18   3  13
  -0.173462619407E-03   1  19   3  10
   0.197508216175E-03   1  19   3  11
   0.442972487535E-03   1  19   3  12
  -0.422798819573E-03   1  19   3  13
   0.152705998883E-01   1  20   3   6
   0.156361395214E-01   1  20   3   7
   0.349690916638E-02   1  20   3   8
  -0.219882699047E-02   1  20   3   9
   0.547721286276E-03   1  20   3  14
  -0.132786368846E-02   1  20   3  15
   0.767475101368E-03   1  20   3  16
  -0.366439633074E-05   1  20   3  30
   0.514151905730E-04   1  20   3  31
  -0.284796081792E-04   1  20   3  32
  -0.219155177192E-01   1  21   3   6
  -0.219218095087E-01   1  21   3   7
  -0.484441506635E-02   1  21   3   8
   0.306866739355E-02   1  21   3   9
  -0.802509799330E-03   1  21   3  14
   0.187519352436E-02   1  21   3  15
  -0.108096430797E-02   1  21   3  16
   0.268789611061E-06   1  21   3  30
   0.449994507980E-04   1  21   3  31
   0.176690131133E-05   1  21   3  32
   0.499785638385E-03   1  22   3   6
  -0.118296846032E-03   1  22   3   7
   0.121980619592E-02   1  22   3   8
  -0.101744053839E-03   1  22   3   9
   0.863297070357E-05   1  22   3  14
  -0.737932217059E-04   1  22   3  15
  -0.629523046222E-04   1  22   3  16
   0.713200863981E-04   1  22   3  30
   0.611597502861E-06   1  22   3  31
  -0.839185066537E-05   1  22   3  32
  -0.636941182477E-02   1  23   3   6
  -0.741125578081E-02   1  23   3   7
  -0.158729321860E-02   1  23   3   8
   0.778952638817E-03   1  23   3   9
  -0.204029059336E-03   1  23   3  14
   0.597443467426E-03   1  23   3  15
  -0.363401025219E-03   1  23   3  16
  -0.711728654257E-05   1  23   3  30
  -0.263480823713E-04   1  23   3  31
  -0.626748713409E-04   1  23   3  32
  -0.540437720629E-03   1  24   3  10
   0.700361894445E-03   1  24   3  11
  -0.294125982920E-03   1  24   3  12
   0.121332681781E-03   1  24   3  13
   0.375519343764E-04   1  25   3  10
   0.120005836563E-04   1  25   3  11
  -0.758521888700E-04   1  25   3  12
   0.119560204355E-03   1  25   3  13
   0.332685911346E-03   1  26   3  10
  -0.659200493436E-04   1  26   3  11
  -0.452206189075E-03   1  26   3  12
   0.737613394405E-03   1  26   3  13
  -0.160532622258E-04   1  27   3  10
  -0.114321380030E-03   1  27   3  11
  -0.914312001940E-04   1  27   3  12
  -0.498147723292E-04   1  27   3  13
  -0.321624031350E-03   1  28   3  10
  -0.464661898321E-03   1  28   3  11
  -0.670796121899E-03   1  28   3  12
  -0.310348306005E-03   1  28   3  13
   0.104595013767E-04   1  29   3  10
  -0.175293822143E-04   1  29   3  11
  -0.461192317582E-04   1  29   3  12
   0.345744459343E-04   1  29   3  13
   0.158932370664E-07   1  30   3   3
  -0.892882639120E-06   1  30   3   4
   0.607626793723E-06   1  30   3   5
  -0.358695298029E-05   1  30   3  20
   0.262632045168E-06   1  30   3  21
   0.698098808769E-04   1  30   3  22
  -0.696558437610E-05   1  30   3  23
  -0.186187268253E-07   1  31   3   3
   0.176838660696E-06   1  31   3   4
   0.393520611716E-06   1  31   3   5
   0.503313788506E-04   1  31   3  20
   0.440499477966E-04   1  31   3  21
   0.598128382435E-06   1  31   3  22
  -0.257899243200E-04   1  31   3  23
  -0.857664454335E-07   1  32   3   3
   0.577736071461E-06   1  32   3   4
   0.794094073865E-06   1  32   3   5
  -0.278782703984E-04   1  32   3  20
   0.172838401681E-05   1  32   3  21
  -0.821504264631E-05   1  32   3  22
  -0.613475107271E-04   1  32   3  23
   0.434973798325       1   1   4   4
   0.828371968163E-05   1   1   4   5
   0.112032910885E-02   1   1   4  20
  -0.123629448893E-02   1   1   4  21
   0.199311178312E-01   1   1   4  22
   0.106386718337E-01   1   1   4  23
  -0.110514181490E-02   1   2   4   6
   0.116398961314E-02   1   2   4   7
  -0.759101876780E-03   1   2   4   8
  -0.252826076271E-07   1   2   4   9
  -0.619377761529E-04   1   2   4  14
   0.194846353521E-04   1   2   4  15
   0.710172178678E-04   1   2   4  16
   0.482770008471E-03   1   2   4  30
   0.142162530516E-03   1   2   4  31
   0.325963160784E-03   1   2   4  32
  -0.461451462122E-02   1   3   4   6
  -0.124201872900E-01   1   3   4   7
   0.588719970231E-02   1   3   4   8
   0.150898397238E-06   1   3   4   9
  -0.981664937354E-04   1   3   4  14
   0.269741933484E-03   1   3   4  15
  -0.731471705785E-03   1   3   4  16
  -0.497588771664E-03   1   3   4  30
   0.987145152711E-04   1   3   4  31
   0.322013929665E-03   1   3   4  32
  -0.389846825097E-01   1   4   4   6
   0.223623746193       1   4   4   7
  -0.185540651641       1   4   4   8
   0.223420333942E-01   1   4   4   9
  -0.284562396250E-02   1   4   4  14
   0.107553216782E-02   1   4   4  15
   0.155944140211E-01   1   4   4  16
  -0.441022464067E-04   1   4   4  30
   0.191562222388E-03   1   4   4  31
  -0.563156104285E-04   1   4   4  32
  -0.211792589261E-02   1   5   4   6
   0.196759754767E-01   1   5   4   7
  -0.810520062416E-01   1   5   4   8
   0.551962253941E-06   1   5   4   9
   0.873107408043E-03   1   5   4  14
   0.250223497375E-02   1   5   4  15
   0.366371808664E-02   1   5   4  16
   0.348884324311E-04   1   5   4  30
  -0.519776370858E-03   1   5   4  31
   0.220073986896E-03   1   5   4  32
  -0.371201644034E-01   1   6   4   4
  -0.201663207517E-02   1   6   4   5
  -0.515818280029E-04   1   6   4  20
  -0.245119610258E-03   1   6   4  21
  -0.446075327234E-02   1   6   4  22
  -0.283657653477E-02   1   6   4  23
   0.212928503438       1   7   4   4
   0.187349343212E-01   1   7   4   5
   0.280092434076E-02   1   7   4  20
  -0.333445675539E-02   1   7   4  21
   0.252601770501E-01   1   7   4  22
   0.160701274050E-01   1   7   4  23
  -0.176666801291       1   8   4   4
  -0.771755346975E-01   1   8   4   5
  -0.272529593312E-02   1   8   4  20
   0.379930039703E-02   1   8   4  21
  -0.168139366011E-01   1   8   4  22
  -0.209366123008E-01   1   8   4  23
   0.209315468796E-01   1   9   4   4
   0.551547091242E-06   1   9   4   5
   0.191265474079E-03   1   9   4  20
  -0.211053157355E-03   1   9   4  21
   0.340253955093E-02   1   9   4  22
   0.181605919015E-02   1   9   4  23
  -0.767520960543E-04   1  10   4  17
  -0.721014386982E-04   1  10   4  18
  -0.768354794007E-03   1  10   4  19
   0.409015670869E-04   1  10   4  24
  -0.840532440227E-03   1  10   4  25
  -0.691203791679E-03   1  10   4  26
   0.218985882898E-03   1  10   4  27
   0.197499517648E-03   1  10   4  28
  -0.350760598202E-03   1  10   4  29
  -0.107307735752E-03   1  11   4  17
  -0.619011378138E-03   1  11   4  18
   0.208468990323E-03   1  11   4  19
  -0.358381064026E-04   1  11   4  24
   0.855032404145E-03   1  11   4  25
  -0.641566879489E-03   1  11   4  26
  -0.232038249233E-03   1  11   4  27
   0.207978855783E-03   1  11   4  28
  -0.692810490480E-03   1  11   4  29
  -0.709408210868E-03   1  12   4  17
   0.138373148583E-04   1  12   4  18
   0.109006885159E-03   1  12   4  19
   0.117930633070E-04   1  12   4  24
  -0.313668470515E-03   1  12   4  25
   0.602944285806E-03   1  12   4  26